 Entering Link 1 = C:\G09W\l1.exe PID=     19524.
  
 Copyright (c) 1988,1990,1992,1993,1995,1998,2003,2009,2013,
            Gaussian, Inc.  All Rights Reserved.
  
 This is part of the Gaussian(R) 09 program.  It is based on
 the Gaussian(R) 03 system (copyright 2003, Gaussian, Inc.),
 the Gaussian(R) 98 system (copyright 1998, Gaussian, Inc.),
 the Gaussian(R) 94 system (copyright 1995, Gaussian, Inc.),
 the Gaussian 92(TM) system (copyright 1992, Gaussian, Inc.),
 the Gaussian 90(TM) system (copyright 1990, Gaussian, Inc.),
 the Gaussian 88(TM) system (copyright 1988, Gaussian, Inc.),
 the Gaussian 86(TM) system (copyright 1986, Carnegie Mellon
 University), and the Gaussian 82(TM) system (copyright 1983,
 Carnegie Mellon University). Gaussian is a federally registered
 trademark of Gaussian, Inc.
  
 This software contains proprietary and confidential information,
 including trade secrets, belonging to Gaussian, Inc.
  
 This software is provided under written license and may be
 used, copied, transmitted, or stored only in accord with that
 written license.
  
 The following legend is applicable only to US Government
 contracts under FAR:
  
                    RESTRICTED RIGHTS LEGEND
  
 Use, reproduction and disclosure by the US Government is
 subject to restrictions as set forth in subparagraphs (a)
 and (c) of the Commercial Computer Software - Restricted
 Rights clause in FAR 52.227-19.
  
 Gaussian, Inc.
 340 Quinnipiac St., Bldg. 40, Wallingford CT 06492
  
  
 ---------------------------------------------------------------
 Warning -- This program may not be used in any manner that
 competes with the business of Gaussian, Inc. or will provide
 assistance to any competitor of Gaussian, Inc.  The licensee
 of this program is prohibited from giving any competitor of
 Gaussian, Inc. access to this program.  By using this program,
 the user acknowledges that Gaussian, Inc. is engaged in the
 business of creating and licensing software in the field of
 computational chemistry and represents and warrants to the
 licensee that it is not a competitor of Gaussian, Inc. and that
 it will not use this program in any manner prohibited above.
 ---------------------------------------------------------------
  

 Cite this work as:
 Gaussian 09, Revision D.01,
 M. J. Frisch, G. W. Trucks, H. B. Schlegel, G. E. Scuseria, 
 M. A. Robb, J. R. Cheeseman, G. Scalmani, V. Barone, B. Mennucci, 
 G. A. Petersson, H. Nakatsuji, M. Caricato, X. Li, H. P. Hratchian, 
 A. F. Izmaylov, J. Bloino, G. Zheng, J. L. Sonnenberg, M. Hada, 
 M. Ehara, K. Toyota, R. Fukuda, J. Hasegawa, M. Ishida, T. Nakajima, 
 Y. Honda, O. Kitao, H. Nakai, T. Vreven, J. A. Montgomery, Jr., 
 J. E. Peralta, F. Ogliaro, M. Bearpark, J. J. Heyd, E. Brothers, 
 K. N. Kudin, V. N. Staroverov, T. Keith, R. Kobayashi, J. Normand, 
 K. Raghavachari, A. Rendell, J. C. Burant, S. S. Iyengar, J. Tomasi, 
 M. Cossi, N. Rega, J. M. Millam, M. Klene, J. E. Knox, J. B. Cross, 
 V. Bakken, C. Adamo, J. Jaramillo, R. Gomperts, R. E. Stratmann, 
 O. Yazyev, A. J. Austin, R. Cammi, C. Pomelli, J. W. Ochterski, 
 R. L. Martin, K. Morokuma, V. G. Zakrzewski, G. A. Voth, 
 P. Salvador, J. J. Dannenberg, S. Dapprich, A. D. Daniels, 
 O. Farkas, J. B. Foresman, J. V. Ortiz, J. Cioslowski, 
 and D. J. Fox, Gaussian, Inc., Wallingford CT, 2013.
 
 ******************************************
 Gaussian 09:  IA32W-G09RevD.01 24-Apr-2013
                04-Dec-2023 
 ******************************************
 -------------
 #opt HF 6-31+
 -------------
 1/18=20,19=15,38=1/1,3;
 2/9=110,12=2,17=6,18=5,40=1/2;
 3/5=1,6=6,7=10,11=9,16=1,25=1,30=1,71=1/1,2,3;
 4//1;
 5/5=2,38=5/2;
 6/7=2,8=2,9=2,10=2,28=1/1;
 7//1,2,3,16;
 1/18=20,19=15/3(2);
 2/9=110/2;
 99//99;
 2/9=110/2;
 3/5=1,6=6,7=10,11=9,16=1,25=1,30=1,71=1/1,2,3;
 4/5=5,16=3,69=1/1;
 5/5=2,38=5/2;
 7//1,2,3,16;
 1/18=20,19=15/3(-5);
 2/9=110/2;
 6/7=2,8=2,9=2,10=2,19=2,28=1/1;
 99/9=1/99;
 -----------
 Guanina opt
 -----------
 Symbolic Z-matrix:
 Charge =  0 Multiplicity = 1
 7                    -11.404    7.127     10.407 
 7                    -12.903    6.422     11.912 
 6                    -12.622    6.571     10.717 
 7                    -13.38     6.103     9.749 
 6                    -13.012    6.312     8.44 
 6                    -11.821    6.977     8.073 
 8                    -9.849     7.93      8.852 
 6                    -10.963    7.357     9.143 
 7                    -11.62     6.92      6.76 
 6                    -12.699    6.248     6.293 
 1                    -12.862    6.073     5.394 
 7                    -13.501    5.878     7.262 
 1                    -10.43801   6.83977   10.88312 
 1                    -14.25325   6.25881   7.11808 
 1                    -12.13073   6.00076   12.65726 
 1                    -13.47112   5.65303   12.18565 
 

 GradGradGradGradGradGradGradGradGradGradGradGradGradGradGradGradGradGrad
 Berny optimization.
 Initialization pass.
                           ----------------------------
                           !    Initial Parameters    !
                           ! (Angstroms and Degrees)  !
 --------------------------                            --------------------------
 ! Name  Definition              Value          Derivative Info.                !
 --------------------------------------------------------------------------------
 ! R1    R(1,3)                  1.3743         estimate D2E/DX2                !
 ! R2    R(1,8)                  1.3583         estimate D2E/DX2                !
 ! R3    R(1,13)                 1.1146         estimate D2E/DX2                !
 ! R4    R(2,3)                  1.2366         estimate D2E/DX2                !
 ! R5    R(2,15)                 1.1529         estimate D2E/DX2                !
 ! R6    R(2,16)                 0.9945         estimate D2E/DX2                !
 ! R7    R(3,4)                  1.3155         estimate D2E/DX2                !
 ! R8    R(4,5)                  1.3757         estimate D2E/DX2                !
 ! R9    R(5,6)                  1.4126         estimate D2E/DX2                !
 ! R10   R(5,12)                 1.3473         estimate D2E/DX2                !
 ! R11   R(6,8)                  1.4232         estimate D2E/DX2                !
 ! R12   R(6,9)                  1.3295         estimate D2E/DX2                !
 ! R13   R(7,8)                  1.2861         estimate D2E/DX2                !
 ! R14   R(9,10)                 1.3542         estimate D2E/DX2                !
 ! R15   R(10,11)                0.9303         estimate D2E/DX2                !
 ! R16   R(10,12)                1.3111         estimate D2E/DX2                !
 ! R17   R(12,14)                0.8553         estimate D2E/DX2                !
 ! A1    A(3,1,8)              124.4812         estimate D2E/DX2                !
 ! A2    A(3,1,13)             124.5747         estimate D2E/DX2                !
 ! A3    A(8,1,13)              99.1932         estimate D2E/DX2                !
 ! A4    A(3,2,15)             121.0961         estimate D2E/DX2                !
 ! A5    A(3,2,16)             119.2682         estimate D2E/DX2                !
 ! A6    A(15,2,16)             85.5417         estimate D2E/DX2                !
 ! A7    A(1,3,2)              117.9118         estimate D2E/DX2                !
 ! A8    A(1,3,4)              119.2487         estimate D2E/DX2                !
 ! A9    A(2,3,4)              122.4983         estimate D2E/DX2                !
 ! A10   A(3,4,5)              119.47           estimate D2E/DX2                !
 ! A11   A(4,5,6)              122.9744         estimate D2E/DX2                !
 ! A12   A(4,5,12)             133.3085         estimate D2E/DX2                !
 ! A13   A(6,5,12)             103.3268         estimate D2E/DX2                !
 ! A14   A(5,6,8)              116.019          estimate D2E/DX2                !
 ! A15   A(5,6,9)              111.3377         estimate D2E/DX2                !
 ! A16   A(8,6,9)              131.5134         estimate D2E/DX2                !
 ! A17   A(1,8,6)              117.3019         estimate D2E/DX2                !
 ! A18   A(1,8,7)              124.5563         estimate D2E/DX2                !
 ! A19   A(6,8,7)              118.1026         estimate D2E/DX2                !
 ! A20   A(6,9,10)             103.968          estimate D2E/DX2                !
 ! A21   A(9,10,11)            124.4867         estimate D2E/DX2                !
 ! A22   A(9,10,12)            111.8726         estimate D2E/DX2                !
 ! A23   A(11,10,12)           123.6385         estimate D2E/DX2                !
 ! A24   A(5,12,10)            109.4679         estimate D2E/DX2                !
 ! A25   A(5,12,14)            108.8392         estimate D2E/DX2                !
 ! A26   A(10,12,14)           106.7361         estimate D2E/DX2                !
 ! D1    D(8,1,3,2)           -179.6531         estimate D2E/DX2                !
 ! D2    D(8,1,3,4)              6.8836         estimate D2E/DX2                !
 ! D3    D(13,1,3,2)            45.2151         estimate D2E/DX2                !
 ! D4    D(13,1,3,4)          -128.2482         estimate D2E/DX2                !
 ! D5    D(3,1,8,6)             -0.8437         estimate D2E/DX2                !
 ! D6    D(3,1,8,7)            176.828          estimate D2E/DX2                !
 ! D7    D(13,1,8,6)           143.1099         estimate D2E/DX2                !
 ! D8    D(13,1,8,7)           -39.2184         estimate D2E/DX2                !
 ! D9    D(15,2,3,1)           -44.2753         estimate D2E/DX2                !
 ! D10   D(15,2,3,4)           128.9615         estimate D2E/DX2                !
 ! D11   D(16,2,3,1)          -147.806          estimate D2E/DX2                !
 ! D12   D(16,2,3,4)            25.4308         estimate D2E/DX2                !
 ! D13   D(1,3,4,5)             -7.254          estimate D2E/DX2                !
 ! D14   D(2,3,4,5)            179.5962         estimate D2E/DX2                !
 ! D15   D(3,4,5,6)              2.1114         estimate D2E/DX2                !
 ! D16   D(3,4,5,12)           173.6641         estimate D2E/DX2                !
 ! D17   D(4,5,6,8)              3.7252         estimate D2E/DX2                !
 ! D18   D(4,5,6,9)            172.9946         estimate D2E/DX2                !
 ! D19   D(12,5,6,8)          -169.968          estimate D2E/DX2                !
 ! D20   D(12,5,6,9)            -0.6985         estimate D2E/DX2                !
 ! D21   D(4,5,12,10)         -173.1064         estimate D2E/DX2                !
 ! D22   D(4,5,12,14)           70.5776         estimate D2E/DX2                !
 ! D23   D(6,5,12,10)           -0.3823         estimate D2E/DX2                !
 ! D24   D(6,5,12,14)         -116.6982         estimate D2E/DX2                !
 ! D25   D(5,6,8,1)             -4.1789         estimate D2E/DX2                !
 ! D26   D(5,6,8,7)            177.9947         estimate D2E/DX2                !
 ! D27   D(9,6,8,1)           -170.7872         estimate D2E/DX2                !
 ! D28   D(9,6,8,7)             11.3864         estimate D2E/DX2                !
 ! D29   D(5,6,9,10)             1.4339         estimate D2E/DX2                !
 ! D30   D(8,6,9,10)           168.5222         estimate D2E/DX2                !
 ! D31   D(6,9,10,11)          177.782          estimate D2E/DX2                !
 ! D32   D(6,9,10,12)           -1.7013         estimate D2E/DX2                !
 ! D33   D(9,10,12,5)            1.3365         estimate D2E/DX2                !
 ! D34   D(9,10,12,14)         118.978          estimate D2E/DX2                !
 ! D35   D(11,10,12,5)        -178.152          estimate D2E/DX2                !
 ! D36   D(11,10,12,14)        -60.5105         estimate D2E/DX2                !
 --------------------------------------------------------------------------------
 Trust Radius=3.00D-01 FncErr=1.00D-07 GrdErr=1.00D-07
 Number of steps in this run=     89 maximum allowed number of steps=    100.
 GradGradGradGradGradGradGradGradGradGradGradGradGradGradGradGradGradGrad

                          Input orientation:                          
 ---------------------------------------------------------------------
 Center     Atomic      Atomic             Coordinates (Angstroms)
 Number     Number       Type             X           Y           Z
 ---------------------------------------------------------------------
      1          7           0      -11.404000    7.127000   10.407000
      2          7           0      -12.903000    6.422000   11.912000
      3          6           0      -12.622000    6.571000   10.717000
      4          7           0      -13.380000    6.103000    9.749000
      5          6           0      -13.012000    6.312000    8.440000
      6          6           0      -11.821000    6.977000    8.073000
      7          8           0       -9.849000    7.930000    8.852000
      8          6           0      -10.963000    7.357000    9.143000
      9          7           0      -11.620000    6.920000    6.760000
     10          6           0      -12.699000    6.248000    6.293000
     11          1           0      -12.862000    6.073000    5.394000
     12          7           0      -13.501000    5.878000    7.262000
     13          1           0      -10.438013    6.839771   10.883123
     14          1           0      -14.253253    6.258813    7.118076
     15          1           0      -12.130734    6.000757   12.657264
     16          1           0      -13.471117    5.653029   12.185647
 ---------------------------------------------------------------------
                    Distance matrix (angstroms):
                    1          2          3          4          5
     1  N    0.000000
     2  N    2.238091   0.000000
     3  C    1.374322   1.236603   0.000000
     4  N    2.320801   2.237825   1.315527   0.000000
     5  C    2.668141   3.475452   2.324631   1.375713   0.000000
     6  C    2.375699   4.026993   2.792342   2.450170   1.412585
     7  O    2.341123   4.578709   3.607580   4.075598   3.576624
     8  C    1.358336   3.507875   2.418171   2.789559   2.405127
     9  N    3.659250   5.332654   4.096786   3.563595   2.264890
    10  C    4.401666   5.625394   4.436444   3.525439   2.170639
    11  H    5.326054   6.527466   5.351629   4.385801   3.059042
    12  N    3.981009   4.719750   3.631792   2.500087   1.347279
    13  H    1.114596   2.703568   2.206725   3.237955   3.587869
    14  H    4.437231   4.983124   3.963673   2.776439   1.814118
    15  H    2.619209   1.152935   2.081140   3.166879   4.319586
    16  H    3.099863   0.994463   1.928884   2.479521   3.830783
                    6          7          8          9         10
     6  C    0.000000
     7  O    2.324615   0.000000
     8  C    1.423188   1.286082   0.000000
     9  N    1.329518   2.921131   2.510240   0.000000
    10  C    2.114409   4.183313   3.516543   1.354221   0.000000
    11  H    3.012962   4.948170   4.394298   2.031238   0.930266
    12  N    2.165161   4.480615   3.488129   2.208151   1.311131
    13  H    3.135008   2.379285   1.889753   4.289950   5.150872
    14  H    2.709895   5.019642   4.016479   2.738505   1.759708
    15  H    4.697283   4.838215   3.943736   5.990291   6.394366
    16  H    4.624895   5.423793   4.295564   5.871073   5.972725
                   11         12         13         14         15
    11  H    0.000000
    12  N    1.983878   0.000000
    13  H    6.049307   4.839362   0.000000
    14  H    2.223185   0.855347   5.391582   0.000000
    15  H    7.300341   5.567906   2.591684   5.937532   0.000000
    16  H    6.831827   4.928874   3.507798   5.163234   1.462862
                   16
    16  H    0.000000
 Stoichiometry    C5H5N5O
 Framework group  C1[X(C5H5N5O)]
 Deg. of freedom    42
 Full point group                 C1      NOp   1
 Largest Abelian subgroup         C1      NOp   1
 Largest concise Abelian subgroup C1      NOp   1
                         Standard orientation:                         
 ---------------------------------------------------------------------
 Center     Atomic      Atomic             Coordinates (Angstroms)
 Number     Number       Type             X           Y           Z
 ---------------------------------------------------------------------
      1          7           0       -1.493889    0.813200   -0.019845
      2          7           0       -2.937030   -0.896713   -0.070764
      3          6           0       -1.754751   -0.534527   -0.085759
      4          7           0       -0.753807   -1.386408   -0.030794
      5          6           0        0.538356   -0.915193   -0.060041
      6          6           0        0.854050    0.460965   -0.103872
      7          8           0       -0.004951    2.619801   -0.030521
      8          6           0       -0.249297    1.357148   -0.033541
      9          7           0        2.161938    0.661628    0.025674
     10          6           0        2.676665   -0.587502    0.118651
     11          1           0        3.584202   -0.779332    0.189161
     12          7           0        1.740692   -1.505110    0.086752
     13          1           0       -1.989175    1.519542    0.685915
     14          1           0        1.895551   -1.991140   -0.599842
     15          1           0       -3.692272   -0.433901    0.667255
     16          1           0       -3.174174   -1.765096    0.351884
 ---------------------------------------------------------------------
 Rotational constants (GHZ):      2.0252921      1.1223807      0.7263751
 Standard basis: 6-31+G (6D, 7F)
 There are   153 symmetry adapted cartesian basis functions of A   symmetry.
 There are   153 symmetry adapted basis functions of A   symmetry.
   153 basis functions,   306 primitive gaussians,   153 cartesian basis functions
    39 alpha electrons       39 beta electrons
       nuclear repulsion energy       602.9840804374 Hartrees.
 NAtoms=   16 NActive=   16 NUniq=   16 SFac= 1.00D+00 NAtFMM=   60 NAOKFM=F Big=F
 Integral buffers will be    262144 words long.
 Raffenetti 1 integral format.
 Two-electron integral symmetry is turned on.
 One-electron integrals computed using PRISM.
 NBasis=   153 RedAO= T EigKep=  9.01D-06  NBF=   153
 NBsUse=   153 1.00D-06 EigRej= -1.00D+00 NBFU=   153
 ExpMin= 4.38D-02 ExpMax= 5.48D+03 ExpMxC= 8.25D+02 IAcc=2 IRadAn=         4 AccDes= 0.00D+00
 Harris functional with IExCor=  205 and IRadAn=       4 diagonalized for initial guess.
 HarFok:  IExCor=  205 AccDes= 0.00D+00 IRadAn=         4 IDoV= 1 UseB2=F ITyADJ=14
 ICtDFT=  3500011 ScaDFX=  1.000000  1.000000  1.000000  1.000000
 FoFCou: FMM=F IPFlag=           0 FMFlag=      100000 FMFlg1=           0
         NFxFlg=           0 DoJE=T BraDBF=F KetDBF=T FulRan=T
         wScrn=  0.000000 ICntrl=     500 IOpCl=  0 I1Cent=   200000004 NGrid=           0
         NMat0=    1 NMatS0=      1 NMatT0=    0 NMatD0=    1 NMtDS0=    0 NMtDT0=    0
 Petite list used in FoFCou.
 Requested convergence on RMS density matrix=1.00D-08 within 128 cycles.
 Requested convergence on MAX density matrix=1.00D-06.
 Requested convergence on             energy=1.00D-06.
 No special actions if energy rises.
 Initial convergence to 1.0D-05 achieved.  Increase integral accuracy.
 SCF Done:  E(RHF) =  -538.935116752     A.U. after   18 cycles
            NFock= 18  Conv=0.80D-08     -V/T= 1.9979

 **********************************************************************

            Population analysis using the SCF density.

 **********************************************************************

 Orbital symmetries:
       Occupied  (A) (A) (A) (A) (A) (A) (A) (A) (A) (A) (A) (A)
                 (A) (A) (A) (A) (A) (A) (A) (A) (A) (A) (A) (A)
                 (A) (A) (A) (A) (A) (A) (A) (A) (A) (A) (A) (A)
                 (A) (A) (A)
       Virtual   (A) (A) (A) (A) (A) (A) (A) (A) (A) (A) (A) (A)
                 (A) (A) (A) (A) (A) (A) (A) (A) (A) (A) (A) (A)
                 (A) (A) (A) (A) (A) (A) (A) (A) (A) (A) (A) (A)
                 (A) (A) (A) (A) (A) (A) (A) (A) (A) (A) (A) (A)
                 (A) (A) (A) (A) (A) (A) (A) (A) (A) (A) (A) (A)
                 (A) (A) (A) (A) (A) (A) (A) (A) (A) (A) (A) (A)
                 (A) (A) (A) (A) (A) (A) (A) (A) (A) (A) (A) (A)
                 (A) (A) (A) (A) (A) (A) (A) (A) (A) (A) (A) (A)
                 (A) (A) (A) (A) (A) (A) (A) (A) (A) (A) (A) (A)
                 (A) (A) (A) (A) (A) (A)
 The electronic state is 1-A.
 Alpha  occ. eigenvalues --  -20.53666 -15.66135 -15.64836 -15.63060 -15.59870
 Alpha  occ. eigenvalues --  -15.59434 -11.42968 -11.38672 -11.34897 -11.31381
 Alpha  occ. eigenvalues --  -11.27455  -1.44501  -1.42001  -1.36488  -1.27684
 Alpha  occ. eigenvalues --   -1.24046  -1.23092  -1.06269  -0.95106  -0.92371
 Alpha  occ. eigenvalues --   -0.88489  -0.84032  -0.81133  -0.75409  -0.72753
 Alpha  occ. eigenvalues --   -0.70991  -0.66931  -0.64019  -0.63005  -0.59495
 Alpha  occ. eigenvalues --   -0.57937  -0.55855  -0.49394  -0.46950  -0.44662
 Alpha  occ. eigenvalues --   -0.43879  -0.42517  -0.41713  -0.30353
 Alpha virt. eigenvalues --    0.02839   0.05751   0.07285   0.08039   0.08695
 Alpha virt. eigenvalues --    0.09010   0.09883   0.10198   0.11572   0.12914
 Alpha virt. eigenvalues --    0.13046   0.13543   0.14513   0.16047   0.16267
 Alpha virt. eigenvalues --    0.17494   0.18527   0.19089   0.19695   0.20324
 Alpha virt. eigenvalues --    0.21490   0.21939   0.23582   0.24679   0.25963
 Alpha virt. eigenvalues --    0.26460   0.26654   0.27946   0.28292   0.28671
 Alpha virt. eigenvalues --    0.29725   0.30935   0.31381   0.32319   0.33071
 Alpha virt. eigenvalues --    0.33137   0.34278   0.35296   0.35686   0.36179
 Alpha virt. eigenvalues --    0.37056   0.38578   0.39017   0.40940   0.42690
 Alpha virt. eigenvalues --    0.43693   0.43844   0.44650   0.45298   0.46421
 Alpha virt. eigenvalues --    0.47251   0.48230   0.48668   0.49258   0.51428
 Alpha virt. eigenvalues --    0.52368   0.54994   0.59855   0.62627   0.64062
 Alpha virt. eigenvalues --    0.65639   0.69511   0.72346   0.82381   0.84371
 Alpha virt. eigenvalues --    0.90830   0.91832   0.94398   0.96073   0.96533
 Alpha virt. eigenvalues --    1.01387   1.03141   1.04465   1.07549   1.10951
 Alpha virt. eigenvalues --    1.12848   1.14295   1.16432   1.17269   1.19034
 Alpha virt. eigenvalues --    1.20027   1.20475   1.21852   1.24644   1.25399
 Alpha virt. eigenvalues --    1.26846   1.27775   1.31006   1.32167   1.32605
 Alpha virt. eigenvalues --    1.33964   1.36607   1.36862   1.39035   1.43197
 Alpha virt. eigenvalues --    1.44714   1.46845   1.49254   1.49766   1.51618
 Alpha virt. eigenvalues --    1.57814   1.61219   1.62217   1.67461   1.74232
 Alpha virt. eigenvalues --    1.76320   1.81460   1.82521   2.00156   2.02117
 Alpha virt. eigenvalues --    2.04802   2.18007   2.30108   2.46182
          Condensed to atoms (all electrons):
               1          2          3          4          5          6
     1  N    9.507182  -0.662774   0.140685  -0.038814   0.253951  -1.079286
     2  N   -0.662774   9.144900  -0.827256  -0.823976   0.972473  -0.642293
     3  C    0.140685  -0.827256   7.340611   0.659325  -1.835738   0.918200
     4  N   -0.038814  -0.823976   0.659325   7.714600  -0.256397   0.606921
     5  C    0.253951   0.972473  -1.835738  -0.256397  18.124726  -9.639394
     6  C   -1.079286  -0.642293   0.918200   0.606921  -9.639394  20.095838
     7  O   -0.201701  -0.019079   0.092767   0.002842  -0.111566  -0.107500
     8  C   -0.300890   0.310501  -0.880845  -0.213749   1.194269  -5.843917
     9  N    0.000992   0.015702   0.015236   0.038881   1.121971  -0.358313
    10  C   -0.026685   0.015553  -0.360189   0.095778  -1.557002   0.610380
    11  H    0.000053  -0.000039   0.000808   0.003638   0.021895   0.012406
    12  N   -0.090198  -0.079718  -0.058838  -0.426733  -2.532605   1.159966
    13  H    0.202121   0.005578  -0.067438   0.003685   0.053373   0.052214
    14  H    0.001263   0.001397   0.015919   0.037075   0.243182  -0.085024
    15  H   -0.015788   0.261555  -0.011594   0.025958   0.025421   0.001506
    16  H    0.039330   0.119942   0.151516   0.004222  -0.083841   0.009874
               7          8          9         10         11         12
     1  N   -0.201701  -0.300890   0.000992  -0.026685   0.000053  -0.090198
     2  N   -0.019079   0.310501   0.015702   0.015553  -0.000039  -0.079718
     3  C    0.092767  -0.880845   0.015236  -0.360189   0.000808  -0.058838
     4  N    0.002842  -0.213749   0.038881   0.095778   0.003638  -0.426733
     5  C   -0.111566   1.194269   1.121971  -1.557002   0.021895  -2.532605
     6  C   -0.107500  -5.843917  -0.358313   0.610380   0.012406   1.159966
     7  O    8.500886   0.428807  -0.013821  -0.001164   0.000117  -0.001591
     8  C    0.428807  11.507121  -0.313418  -0.195404  -0.009242   0.029559
     9  N   -0.013821  -0.313418   7.284042   0.071204  -0.037765  -0.550128
    10  C   -0.001164  -0.195404   0.071204   6.707263   0.457557  -0.025126
    11  H    0.000117  -0.009242  -0.037765   0.457557   0.464479  -0.135943
    12  N   -0.001591   0.029559  -0.550128  -0.025126  -0.135943  10.403987
    13  H    0.001669  -0.009741   0.002172   0.002997   0.000000   0.000626
    14  H    0.000058  -0.037221   0.040317  -0.022578   0.005666  -0.026897
    15  H    0.000380  -0.011993  -0.000061   0.001000   0.000000   0.000259
    16  H    0.000044  -0.004876  -0.000079  -0.001951   0.000000  -0.000289
              13         14         15         16
     1  N    0.202121   0.001263  -0.015788   0.039330
     2  N    0.005578   0.001397   0.261555   0.119942
     3  C   -0.067438   0.015919  -0.011594   0.151516
     4  N    0.003685   0.037075   0.025958   0.004222
     5  C    0.053373   0.243182   0.025421  -0.083841
     6  C    0.052214  -0.085024   0.001506   0.009874
     7  O    0.001669   0.000058   0.000380   0.000044
     8  C   -0.009741  -0.037221  -0.011993  -0.004876
     9  N    0.002172   0.040317  -0.000061  -0.000079
    10  C    0.002997  -0.022578   0.001000  -0.001951
    11  H    0.000000   0.005666   0.000000   0.000000
    12  N    0.000626  -0.026897   0.000259  -0.000289
    13  H    0.304556  -0.000001  -0.001220  -0.000014
    14  H   -0.000001   0.387893   0.000000  -0.000001
    15  H   -0.001220   0.000000   0.398806  -0.066761
    16  H   -0.000014  -0.000001  -0.066761   0.400526
 Mulliken charges:
               1
     1  N   -0.729442
     2  N   -0.792466
     3  C    0.706830
     4  N   -0.433256
     5  C    0.005282
     6  C    0.288421
     7  O   -0.571147
     8  C    0.351039
     9  N   -0.316931
    10  C    0.228367
    11  H    0.216371
    12  N   -0.666331
    13  H    0.449423
    14  H    0.438953
    15  H    0.392531
    16  H    0.432357
 Sum of Mulliken charges =   0.00000
 Mulliken charges with hydrogens summed into heavy atoms:
               1
     1  N   -0.280019
     2  N    0.032422
     3  C    0.706830
     4  N   -0.433256
     5  C    0.005282
     6  C    0.288421
     7  O   -0.571147
     8  C    0.351039
     9  N   -0.316931
    10  C    0.444738
    12  N   -0.227379
 Electronic spatial extent (au):  <R**2>=           1484.5739
 Charge=              0.0000 electrons
 Dipole moment (field-independent basis, Debye):
    X=             -4.2665    Y=             -6.0097    Z=              1.8923  Tot=              7.6092
 Quadrupole moment (field-independent basis, Debye-Ang):
   XX=            -43.7042   YY=            -81.2730   ZZ=            -62.9650
   XY=             -8.8535   XZ=            -12.0247   YZ=              3.1188
 Traceless Quadrupole moment (field-independent basis, Debye-Ang):
   XX=             18.9432   YY=            -18.6256   ZZ=             -0.3176
   XY=             -8.8535   XZ=            -12.0247   YZ=              3.1188
 Octapole moment (field-independent basis, Debye-Ang**2):
  XXX=            -46.1107  YYY=            -45.3303  ZZZ=              1.6447  XYY=            -10.7671
  XXY=            -34.1526  XXZ=             30.1259  XZZ=             -5.0750  YZZ=              1.1735
  YYZ=             -0.4425  XYZ=              7.5619
 Hexadecapole moment (field-independent basis, Debye-Ang**3):
 XXXX=           -925.3826 YYYY=           -813.4159 ZZZZ=            -71.8146 XXXY=            -24.6772
 XXXZ=           -116.1672 YYYX=            -17.2015 YYYZ=             15.1149 ZZZX=            -11.0664
 ZZZY=              3.3748 XXYY=           -275.5298 XXZZ=           -211.1634 YYZZ=           -121.5466
 XXYZ=             -5.0847 YYXZ=            -30.3817 ZZXY=             -6.1098
 N-N= 6.029840804374D+02 E-N=-2.468449025996D+03  KE= 5.400796042385D+02
 Calling FoFJK, ICntrl=      2127 FMM=F ISym2X=0 I1Cent= 0 IOpClX= 0 NMat=1 NMatS=1 NMatT=0.
 ***** Axes restored to original set *****
 -------------------------------------------------------------------
 Center     Atomic                   Forces (Hartrees/Bohr)
 Number     Number              X              Y              Z
 -------------------------------------------------------------------
      1        7           0.098154542   -0.027406222    0.027890505
      2        7           0.027380835   -0.103322801    0.253192818
      3        6           0.045671070   -0.003548388   -0.188240550
      4        7          -0.028098960    0.006863498   -0.005750444
      5        6           0.090267376    0.030095744    0.037502074
      6        6          -0.041910678   -0.033494239    0.073466984
      7        8          -0.045847141   -0.036073303    0.045240322
      8        6           0.057783585    0.065951723   -0.090633588
      9        7          -0.034815750   -0.028276665   -0.064510135
     10        6           0.147184215    0.073926206    0.113957378
     11        1          -0.029117165   -0.027014518   -0.155318945
     12        7           0.102452077   -0.080881155    0.072842245
     13        1          -0.075487598    0.029949390    0.001795056
     14        1          -0.239657734    0.054258965   -0.038501165
     15        1          -0.026218310    0.066259635   -0.057839641
     16        1          -0.047740364    0.012712133   -0.025092915
 -------------------------------------------------------------------
 Cartesian Forces:  Max     0.253192818 RMS     0.084097520

 GradGradGradGradGradGradGradGradGradGradGradGradGradGradGradGradGradGrad
 Berny optimization.
 FormGI is forming the generalized inverse of G from B-inverse, IUseBI=4.
 Internal  Forces:  Max     0.241407520 RMS     0.046123206
 Search for a local minimum.
 Step number   1 out of a maximum of   89
 All quantities printed in internal units (Hartrees-Bohrs-Radians)
 Mixed Optimization -- RFO/linear search
 Second derivative matrix not updated -- first step.
 ITU=  0
     Eigenvalues ---    0.01992   0.02059   0.02109   0.02198   0.02236
     Eigenvalues ---    0.02395   0.02604   0.02683   0.02907   0.03091
     Eigenvalues ---    0.03853   0.05318   0.06909   0.10570   0.13563
     Eigenvalues ---    0.15999   0.16000   0.16000   0.23188   0.23632
     Eigenvalues ---    0.23940   0.24774   0.24873   0.24895   0.24981
     Eigenvalues ---    0.28446   0.32118   0.37957   0.41000   0.47355
     Eigenvalues ---    0.48675   0.49333   0.50181   0.52341   0.53084
     Eigenvalues ---    0.57106   0.61185   0.62112   0.62394   0.71212
     Eigenvalues ---    0.85788   0.88390
 RFO step:  Lambda=-2.14190748D-01 EMin= 1.99172699D-02
 Linear search not attempted -- first point.
 Maximum step size (   0.300) exceeded in Quadratic search.
    -- Step size scaled by   0.575
 Iteration  1 RMS(Cart)=  0.03671396 RMS(Int)=  0.00124571
 Iteration  2 RMS(Cart)=  0.00123650 RMS(Int)=  0.00013863
 Iteration  3 RMS(Cart)=  0.00000237 RMS(Int)=  0.00013860
 Iteration  4 RMS(Cart)=  0.00000000 RMS(Int)=  0.00013860
 Variable       Old X    -DE/DX   Delta X   Delta X   Delta X     New X
                                 (Linear)    (Quad)   (Total)
    R1        2.59709   0.01542   0.00000   0.01345   0.01346   2.61055
    R2        2.56688   0.02859   0.00000   0.02325   0.02328   2.59016
    R3        2.10628  -0.07237   0.00000  -0.07766  -0.07766   2.02862
    R4        2.33684   0.17805   0.00000   0.09315   0.09315   2.43000
    R5        2.17873  -0.07916   0.00000  -0.09120  -0.09120   2.08753
    R6        1.87926   0.01054   0.00000   0.00864   0.00864   1.88790
    R7        2.48599  -0.01512   0.00000  -0.01048  -0.01050   2.47549
    R8        2.59972  -0.01963   0.00000  -0.01712  -0.01714   2.58258
    R9        2.66940  -0.02300   0.00000  -0.02331  -0.02330   2.64610
   R10        2.54599   0.04202   0.00000   0.03250   0.03260   2.57859
   R11        2.68944   0.01031   0.00000   0.00964   0.00966   2.69909
   R12        2.51243   0.04947   0.00000   0.03319   0.03310   2.54552
   R13        2.43034  -0.06602   0.00000  -0.04095  -0.04095   2.38939
   R14        2.55911  -0.04867   0.00000  -0.03666  -0.03673   2.52237
   R15        1.75795   0.16028   0.00000   0.10987   0.10987   1.86782
   R16        2.47768   0.09631   0.00000   0.06651   0.06655   2.54423
   R17        1.61637   0.24141   0.00000   0.12937   0.12937   1.74574
    A1        2.17261  -0.01169   0.00000  -0.00981  -0.00976   2.16285
    A2        2.17424  -0.01646   0.00000  -0.02716  -0.02737   2.14687
    A3        1.73125   0.03254   0.00000   0.05195   0.05206   1.78331
    A4        2.11352  -0.01730   0.00000  -0.02137  -0.02130   2.09223
    A5        2.08162  -0.01601   0.00000  -0.01914  -0.01907   2.06256
    A6        1.49298   0.04955   0.00000   0.08596   0.08609   1.57907
    A7        2.05795  -0.00194   0.00000  -0.00205  -0.00212   2.05583
    A8        2.08128   0.01606   0.00000   0.02050   0.02041   2.10170
    A9        2.13800  -0.01305   0.00000  -0.01600  -0.01610   2.12190
   A10        2.08514  -0.01217   0.00000  -0.01952  -0.01955   2.06560
   A11        2.14631   0.01736   0.00000   0.01841   0.01837   2.16468
   A12        2.32667  -0.03658   0.00000  -0.04275  -0.04282   2.28385
   A13        1.80339   0.01936   0.00000   0.02470   0.02481   1.82820
   A14        2.02491   0.00961   0.00000   0.01300   0.01306   2.03797
   A15        1.94321  -0.00215   0.00000  -0.00783  -0.00796   1.93525
   A16        2.29534  -0.00723   0.00000  -0.00441  -0.00433   2.29101
   A17        2.04730  -0.01878   0.00000  -0.02164  -0.02163   2.02567
   A18        2.17392  -0.02846   0.00000  -0.03593  -0.03599   2.13793
   A19        2.06128   0.04747   0.00000   0.05806   0.05802   2.11929
   A20        1.81458   0.01407   0.00000   0.01160   0.01133   1.82591
   A21        2.17270  -0.00355   0.00000  -0.00596  -0.00593   2.16677
   A22        1.95255   0.00597   0.00000   0.01020   0.01013   1.96268
   A23        2.15790  -0.00242   0.00000  -0.00422  -0.00419   2.15371
   A24        1.91058  -0.03708   0.00000  -0.03835  -0.03808   1.87250
   A25        1.89960   0.02395   0.00000   0.04067   0.04084   1.94045
   A26        1.86290   0.02657   0.00000   0.04610   0.04629   1.90918
    D1       -3.13554   0.00813   0.00000   0.01967   0.01980  -3.11574
    D2        0.12014  -0.00115   0.00000  -0.00254  -0.00264   0.11750
    D3        0.78915  -0.01204   0.00000  -0.02583  -0.02551   0.76364
    D4       -2.23835  -0.02132   0.00000  -0.04804  -0.04795  -2.28630
    D5       -0.01473  -0.00097   0.00000  -0.00331  -0.00326  -0.01799
    D6        3.08623   0.00677   0.00000   0.01256   0.01208   3.09832
    D7        2.49774   0.00169   0.00000   0.01021   0.01072   2.50846
    D8       -0.68449   0.00943   0.00000   0.02608   0.02607  -0.65842
    D9       -0.77275   0.01527   0.00000   0.02986   0.02996  -0.74279
   D10        2.25080   0.02693   0.00000   0.05542   0.05523   2.30603
   D11       -2.57970  -0.02818   0.00000  -0.05826  -0.05807  -2.63777
   D12        0.44385  -0.01652   0.00000  -0.03271  -0.03280   0.41105
   D13       -0.12661   0.00125   0.00000   0.00445   0.00460  -0.12201
   D14        3.13454  -0.00935   0.00000  -0.01993  -0.01978   3.11476
   D15        0.03685   0.00024   0.00000  -0.00038  -0.00044   0.03641
   D16        3.03101   0.00384   0.00000   0.00605   0.00586   3.03687
   D17        0.06502  -0.00256   0.00000  -0.00609  -0.00618   0.05883
   D18        3.01933  -0.00246   0.00000  -0.00314  -0.00321   3.01611
   D19       -2.96650  -0.00092   0.00000  -0.00578  -0.00602  -2.97252
   D20       -0.01219  -0.00082   0.00000  -0.00282  -0.00304  -0.01524
   D21       -3.02128   0.00077   0.00000   0.00363   0.00369  -3.01758
   D22        1.23181  -0.02392   0.00000  -0.05317  -0.05304   1.17877
   D23       -0.00667   0.00473   0.00000   0.00993   0.00983   0.00316
   D24       -2.03677  -0.01997   0.00000  -0.04687  -0.04690  -2.08366
   D25       -0.07294   0.00395   0.00000   0.00858   0.00857  -0.06437
   D26        3.10659  -0.00157   0.00000  -0.00412  -0.00437   3.10222
   D27       -2.98080   0.00250   0.00000   0.00466   0.00466  -2.97614
   D28        0.19873  -0.00302   0.00000  -0.00804  -0.00828   0.19045
   D29        0.02503  -0.00207   0.00000  -0.00420  -0.00418   0.02084
   D30        2.94127   0.00059   0.00000   0.00173   0.00172   2.94299
   D31        3.10288   0.00553   0.00000   0.01234   0.01241   3.11529
   D32       -0.02969   0.00523   0.00000   0.01056   0.01062  -0.01908
   D33        0.02333  -0.00638   0.00000  -0.01339  -0.01327   0.01006
   D34        2.07656   0.01730   0.00000   0.04028   0.04023   2.11679
   D35       -3.10934  -0.00667   0.00000  -0.01514  -0.01503  -3.12437
   D36       -1.05611   0.01700   0.00000   0.03853   0.03847  -1.01763
         Item               Value     Threshold  Converged?
 Maximum Force            0.241408     0.000450     NO 
 RMS     Force            0.046123     0.000300     NO 
 Maximum Displacement     0.196401     0.001800     NO 
 RMS     Displacement     0.036716     0.001200     NO 
 Predicted change in Energy=-9.971217D-02
 GradGradGradGradGradGradGradGradGradGradGradGradGradGradGradGradGradGrad

                          Input orientation:                          
 ---------------------------------------------------------------------
 Center     Atomic      Atomic             Coordinates (Angstroms)
 Number     Number       Type             X           Y           Z
 ---------------------------------------------------------------------
      1          7           0      -11.369473    7.123344   10.404792
      2          7           0      -12.899216    6.401571   11.940140
      3          6           0      -12.592863    6.553960   10.700600
      4          7           0      -13.358851    6.093123    9.743044
      5          6           0      -12.986137    6.319967    8.447925
      6          6           0      -11.809405    6.981307    8.075573
      7          8           0       -9.822947    7.935070    8.891891
      8          6           0      -10.928904    7.370627    9.130648
      9          7           0      -11.626858    6.922391    6.742268
     10          6           0      -12.689710    6.256287    6.285875
     11          1           0      -12.857804    6.067436    5.330351
     12          7           0      -13.519992    5.873532    7.274197
     13          1           0      -10.461484    6.853655   10.909985
     14          1           0      -14.357185    6.236105    7.129059
     15          1           0      -12.140234    6.033219   12.653279
     16          1           0      -13.508056    5.648776   12.186480
 ---------------------------------------------------------------------
                    Distance matrix (angstroms):
                    1          2          3          4          5
     1  N    0.000000
     2  N    2.284374   0.000000
     3  C    1.381442   1.285898   0.000000
     4  N    2.335999   2.265753   1.309970   0.000000
     5  C    2.662395   3.494250   2.298687   1.366641   0.000000
     6  C    2.374653   4.056928   2.772580   2.443381   1.400255
     7  O    2.310738   4.594222   3.584875   4.076745   3.579306
     8  C    1.370655   3.565732   2.429085   2.812773   2.408777
     9  N    3.677052   5.376618   4.091124   3.562603   2.262702
    10  C    4.411382   5.660010   4.425809   3.525109   2.183205
    11  H    5.392590   6.618359   5.398747   4.441122   3.130417
    12  N    3.998423   4.736582   3.614248   2.483826   1.364530
    13  H    1.073498   2.684798   2.162507   3.214794   3.566572
    14  H    4.521509   5.029867   3.996220   2.801791   1.904262
    15  H    2.614984   1.104674   2.070990   3.155644   4.299160
    16  H    3.149968   0.999034   1.965903   2.487988   3.834017
                    6          7          8          9         10
     6  C    0.000000
     7  O    2.349905   0.000000
     8  C    1.428299   1.264413   0.000000
     9  N    1.347032   2.983369   2.528322   0.000000
    10  C    2.122170   4.222316   3.526319   1.334782   0.000000
    11  H    3.077425   5.038152   4.456593   2.059050   0.988406
    12  N    2.189857   4.531557   3.521568   2.228678   1.346347
    13  H    3.141191   2.376950   1.910964   4.328128   5.167614
    14  H    2.818225   5.152996   4.128754   2.841703   1.868646
    15  H    4.686546   4.809875   3.957892   5.999520   6.394961
    16  H    4.643340   5.446236   4.353723   5.899190   5.987979
                   11         12         13         14         15
    11  H    0.000000
    12  N    2.062675   0.000000
    13  H    6.123137   4.851192   0.000000
    14  H    2.347752   0.923805   5.463814   0.000000
    15  H    7.358081   5.555516   2.555463   5.955926   0.000000
    16  H    6.899609   4.917436   3.516074   5.161733   1.495538
                   16
    16  H    0.000000
 Stoichiometry    C5H5N5O
 Framework group  C1[X(C5H5N5O)]
 Deg. of freedom    42
 Full point group                 C1      NOp   1
 Largest Abelian subgroup         C1      NOp   1
 Largest concise Abelian subgroup C1      NOp   1
                         Standard orientation:                         
 ---------------------------------------------------------------------
 Center     Atomic      Atomic             Coordinates (Angstroms)
 Number     Number       Type             X           Y           Z
 ---------------------------------------------------------------------
      1          7           0       -1.496582    0.818827   -0.013136
      2          7           0       -2.952748   -0.940376   -0.069276
      3          6           0       -1.730289   -0.541471   -0.071056
      4          7           0       -0.732267   -1.388577   -0.022215
      5          6           0        0.541181   -0.893977   -0.059757
      6          6           0        0.850629    0.470893   -0.105442
      7          8           0       -0.065909    2.633334   -0.028887
      8          6           0       -0.247212    1.382016   -0.037338
      9          7           0        2.177162    0.666995    0.022427
     10          6           0        2.691372   -0.560931    0.119528
     11          1           0        3.657341   -0.752891    0.203204
     12          7           0        1.745952   -1.518756    0.082089
     13          1           0       -2.028346    1.475871    0.648617
     14          1           0        1.912855   -2.086846   -0.627019
     15          1           0       -3.683914   -0.470455    0.612541
     16          1           0       -3.155371   -1.838324    0.318926
 ---------------------------------------------------------------------
 Rotational constants (GHZ):      1.9955633      1.1161366      0.7196377
 Standard basis: 6-31+G (6D, 7F)
 There are   153 symmetry adapted cartesian basis functions of A   symmetry.
 There are   153 symmetry adapted basis functions of A   symmetry.
   153 basis functions,   306 primitive gaussians,   153 cartesian basis functions
    39 alpha electrons       39 beta electrons
       nuclear repulsion energy       599.8267926186 Hartrees.
 NAtoms=   16 NActive=   16 NUniq=   16 SFac= 1.00D+00 NAtFMM=   60 NAOKFM=F Big=F
 Integral buffers will be    262144 words long.
 Raffenetti 1 integral format.
 Two-electron integral symmetry is turned on.
 One-electron integrals computed using PRISM.
 NBasis=   153 RedAO= T EigKep=  8.56D-06  NBF=   153
 NBsUse=   153 1.00D-06 EigRej= -1.00D+00 NBFU=   153
 Initial guess from the checkpoint file:  "C:\G09W\Scratch\gxx.chk"
 B after Tr=     0.000000    0.000000    0.000000
         Rot=    0.999990    0.000005   -0.000053   -0.004551 Ang=   0.52 deg.
 ExpMin= 4.38D-02 ExpMax= 5.48D+03 ExpMxC= 8.25D+02 IAcc=2 IRadAn=         4 AccDes= 0.00D+00
 Harris functional with IExCor=  205 and IRadAn=       4 diagonalized for initial guess.
 HarFok:  IExCor=  205 AccDes= 0.00D+00 IRadAn=         4 IDoV= 1 UseB2=F ITyADJ=14
 ICtDFT=  3500011 ScaDFX=  1.000000  1.000000  1.000000  1.000000
 FoFCou: FMM=F IPFlag=           0 FMFlag=      100000 FMFlg1=           0
         NFxFlg=           0 DoJE=T BraDBF=F KetDBF=T FulRan=T
         wScrn=  0.000000 ICntrl=     500 IOpCl=  0 I1Cent=   200000004 NGrid=           0
         NMat0=    1 NMatS0=      1 NMatT0=    0 NMatD0=    1 NMtDS0=    0 NMtDT0=    0
 Petite list used in FoFCou.
 Requested convergence on RMS density matrix=1.00D-08 within 128 cycles.
 Requested convergence on MAX density matrix=1.00D-06.
 Requested convergence on             energy=1.00D-06.
 No special actions if energy rises.
 Initial convergence to 1.0D-05 achieved.  Increase integral accuracy.
 SCF Done:  E(RHF) =  -539.032142887     A.U. after   16 cycles
            NFock= 16  Conv=0.76D-08     -V/T= 1.9989
 Calling FoFJK, ICntrl=      2127 FMM=F ISym2X=0 I1Cent= 0 IOpClX= 0 NMat=1 NMatS=1 NMatT=0.
 ***** Axes restored to original set *****
 -------------------------------------------------------------------
 Center     Atomic                   Forces (Hartrees/Bohr)
 Number     Number              X              Y              Z
 -------------------------------------------------------------------
      1        7           0.064731585   -0.029872823    0.022616681
      2        7           0.034017391   -0.081479964    0.161106871
      3        6           0.029466893   -0.008405642   -0.106420883
      4        7          -0.022644191    0.010330715    0.001361551
      5        6           0.064449108    0.019834197    0.016848885
      6        6          -0.030735821   -0.028115610    0.055417346
      7        8          -0.033569771   -0.027770319    0.029406416
      8        6           0.042141150    0.051339137   -0.067486247
      9        7          -0.027496748   -0.023123794   -0.046104591
     10        6           0.090519673    0.047741539    0.052696074
     11        1          -0.014911262   -0.013072454   -0.073430977
     12        7           0.030458077   -0.013332570    0.035970503
     13        1          -0.057081701    0.026179802    0.002668977
     14        1          -0.111655332    0.001022038   -0.013980528
     15        1          -0.021847468    0.054437763   -0.046868983
     16        1          -0.035841582    0.014287985   -0.023801095
 -------------------------------------------------------------------
 Cartesian Forces:  Max     0.161106871 RMS     0.050570791

 GradGradGradGradGradGradGradGradGradGradGradGradGradGradGradGradGradGrad
 Berny optimization.
 Using GEDIIS/GDIIS optimizer.
 FormGI is forming the generalized inverse of G from B-inverse, IUseBI=4.
 Internal  Forces:  Max     0.103784578 RMS     0.025795187
 Search for a local minimum.
 Step number   2 out of a maximum of   89
 All quantities printed in internal units (Hartrees-Bohrs-Radians)
 Mixed Optimization -- RFO/linear search
 Update second derivatives using D2CorX and points    1    2
 DE= -9.70D-02 DEPred=-9.97D-02 R= 9.73D-01
 TightC=F SS=  1.41D+00  RLast= 3.35D-01 DXNew= 5.0454D-01 1.0048D+00
 Trust test= 9.73D-01 RLast= 3.35D-01 DXMaxT set to 5.05D-01
 ITU=  1  0
 Use linear search instead of GDIIS.
 Linear search step of   0.600 exceeds DXMaxT=   0.505 but not scaled.
 Quartic linear search produced a step of  2.00000.
 Iteration  1 RMS(Cart)=  0.06973665 RMS(Int)=  0.00705001
 Iteration  2 RMS(Cart)=  0.00661645 RMS(Int)=  0.00081695
 Iteration  3 RMS(Cart)=  0.00005706 RMS(Int)=  0.00081426
 Iteration  4 RMS(Cart)=  0.00000002 RMS(Int)=  0.00081426
 Variable       Old X    -DE/DX   Delta X   Delta X   Delta X     New X
                                 (Linear)    (Quad)   (Total)
    R1        2.61055   0.00399   0.02691   0.00000   0.02698   2.63752
    R2        2.59016   0.02441   0.04656   0.00000   0.04671   2.63687
    R3        2.02862  -0.05360  -0.15533   0.00000  -0.15533   1.87329
    R4        2.43000   0.09433   0.18631   0.00000   0.18631   2.61631
    R5        2.08753  -0.06342  -0.18240   0.00000  -0.18240   1.90513
    R6        1.88790   0.00521   0.01728   0.00000   0.01728   1.90518
    R7        2.47549  -0.01350  -0.02100   0.00000  -0.02111   2.45438
    R8        2.58258  -0.01004  -0.03429   0.00000  -0.03444   2.54813
    R9        2.64610  -0.02147  -0.04660   0.00000  -0.04659   2.59951
   R10        2.57859   0.02267   0.06520   0.00000   0.06588   2.64447
   R11        2.69909   0.00435   0.01932   0.00000   0.01940   2.71850
   R12        2.54552   0.03438   0.06619   0.00000   0.06556   2.61108
   R13        2.38939  -0.04731  -0.08189   0.00000  -0.08189   2.30750
   R14        2.52237  -0.03860  -0.07347   0.00000  -0.07394   2.44844
   R15        1.86782   0.07602   0.21974   0.00000   0.21974   2.08755
   R16        2.54423   0.05573   0.13310   0.00000   0.13339   2.67762
   R17        1.74574   0.10378   0.25874   0.00000   0.25874   2.00448
    A1        2.16285  -0.00713  -0.01951   0.00000  -0.01930   2.14355
    A2        2.14687  -0.01318  -0.05474   0.00000  -0.05599   2.09088
    A3        1.78331   0.02536   0.10413   0.00000   0.10468   1.88799
    A4        2.09223  -0.01270  -0.04259   0.00000  -0.04225   2.04998
    A5        2.06256  -0.01589  -0.03813   0.00000  -0.03778   2.02477
    A6        1.57907   0.04189   0.17217   0.00000   0.17275   1.75182
    A7        2.05583  -0.00414  -0.00424   0.00000  -0.00471   2.05112
    A8        2.10170   0.01220   0.04083   0.00000   0.04036   2.14206
    A9        2.12190  -0.00736  -0.03220   0.00000  -0.03277   2.08913
   A10        2.06560  -0.01031  -0.03909   0.00000  -0.03920   2.02640
   A11        2.16468   0.01302   0.03674   0.00000   0.03646   2.20114
   A12        2.28385  -0.02464  -0.08564   0.00000  -0.08609   2.19776
   A13        1.82820   0.01176   0.04962   0.00000   0.05035   1.87855
   A14        2.03797   0.00741   0.02612   0.00000   0.02650   2.06447
   A15        1.93525  -0.00238  -0.01592   0.00000  -0.01674   1.91850
   A16        2.29101  -0.00475  -0.00867   0.00000  -0.00828   2.28273
   A17        2.02567  -0.01486  -0.04326   0.00000  -0.04313   1.98254
   A18        2.13793  -0.01769  -0.07197   0.00000  -0.07229   2.06564
   A19        2.11929   0.03266   0.11603   0.00000   0.11570   2.23500
   A20        1.82591   0.00806   0.02265   0.00000   0.02099   1.84691
   A21        2.16677  -0.00089  -0.01186   0.00000  -0.01174   2.15503
   A22        1.96268   0.00375   0.02027   0.00000   0.02002   1.98270
   A23        2.15371  -0.00285  -0.00838   0.00000  -0.00826   2.14545
   A24        1.87250  -0.02115  -0.07615   0.00000  -0.07468   1.79781
   A25        1.94045   0.01650   0.08169   0.00000   0.08178   2.02223
   A26        1.90918   0.01830   0.09257   0.00000   0.09281   2.00199
    D1       -3.11574   0.00702   0.03960   0.00000   0.04024  -3.07550
    D2        0.11750  -0.00105  -0.00527   0.00000  -0.00598   0.11152
    D3        0.76364  -0.01117  -0.05102   0.00000  -0.04904   0.71460
    D4       -2.28630  -0.01924  -0.09589   0.00000  -0.09526  -2.38156
    D5       -0.01799  -0.00081  -0.00652   0.00000  -0.00613  -0.02412
    D6        3.09832   0.00447   0.02417   0.00000   0.02119   3.11950
    D7        2.50846   0.00341   0.02145   0.00000   0.02466   2.53312
    D8       -0.65842   0.00869   0.05214   0.00000   0.05198  -0.60644
    D9       -0.74279   0.01312   0.05992   0.00000   0.06059  -0.68220
   D10        2.30603   0.02237   0.11045   0.00000   0.10937   2.41540
   D11       -2.63777  -0.02258  -0.11614   0.00000  -0.11506  -2.75283
   D12        0.41105  -0.01333  -0.06561   0.00000  -0.06628   0.34477
   D13       -0.12201   0.00159   0.00920   0.00000   0.01010  -0.11191
   D14        3.11476  -0.00701  -0.03956   0.00000  -0.03870   3.07607
   D15        0.03641  -0.00042  -0.00088   0.00000  -0.00122   0.03519
   D16        3.03687   0.00213   0.01172   0.00000   0.01066   3.04753
   D17        0.05883  -0.00181  -0.01237   0.00000  -0.01291   0.04592
   D18        3.01611  -0.00112  -0.00642   0.00000  -0.00695   3.00916
   D19       -2.97252  -0.00110  -0.01203   0.00000  -0.01341  -2.98592
   D20       -0.01524  -0.00040  -0.00609   0.00000  -0.00745  -0.02268
   D21       -3.01758  -0.00059   0.00738   0.00000   0.00792  -3.00966
   D22        1.17877  -0.01926  -0.10608   0.00000  -0.10552   1.07325
   D23        0.00316   0.00228   0.01967   0.00000   0.01929   0.02245
   D24       -2.08366  -0.01639  -0.09379   0.00000  -0.09415  -2.17782
   D25       -0.06437   0.00300   0.01714   0.00000   0.01705  -0.04731
   D26        3.10222  -0.00144  -0.00875   0.00000  -0.01021   3.09201
   D27       -2.97614   0.00136   0.00932   0.00000   0.00935  -2.96678
   D28        0.19045  -0.00308  -0.01656   0.00000  -0.01791   0.17254
   D29        0.02084  -0.00122  -0.00837   0.00000  -0.00830   0.01255
   D30        2.94299   0.00138   0.00344   0.00000   0.00331   2.94630
   D31        3.11529   0.00452   0.02481   0.00000   0.02527   3.14056
   D32       -0.01908   0.00283   0.02124   0.00000   0.02163   0.00256
   D33        0.01006  -0.00316  -0.02653   0.00000  -0.02596  -0.01590
   D34        2.11679   0.01459   0.08047   0.00000   0.08052   2.19732
   D35       -3.12437  -0.00485  -0.03005   0.00000  -0.02956   3.12926
   D36       -1.01763   0.01290   0.07695   0.00000   0.07692  -0.94071
         Item               Value     Threshold  Converged?
 Maximum Force            0.103785     0.000450     NO 
 RMS     Force            0.025795     0.000300     NO 
 Maximum Displacement     0.392015     0.001800     NO 
 RMS     Displacement     0.073489     0.001200     NO 
 Predicted change in Energy=-4.561267D-02
 GradGradGradGradGradGradGradGradGradGradGradGradGradGradGradGradGradGrad

                          Input orientation:                          
 ---------------------------------------------------------------------
 Center     Atomic      Atomic             Coordinates (Angstroms)
 Number     Number       Type             X           Y           Z
 ---------------------------------------------------------------------
      1          7           0      -11.298572    7.115134   10.400419
      2          7           0      -12.893537    6.361016   11.993520
      3          6           0      -12.532879    6.520332   10.666359
      4          7           0      -13.314590    6.075684    9.729291
      5          6           0      -12.932096    6.338371    8.463228
      6          6           0      -11.783292    6.992205    8.082403
      7          8           0       -9.774128    7.942384    8.969292
      8          6           0      -10.859005    7.399122    9.106897
      9          7           0      -11.639272    6.930119    6.709606
     10          6           0      -12.670666    6.277096    6.275425
     11          1           0      -12.848509    6.059375    5.207108
     12          7           0      -13.557443    5.869247    7.302551
     13          1           0      -10.508646    6.877731   10.950269
     14          1           0      -14.564630    6.172146    7.164854
     15          1           0      -12.170556    6.091969   12.642581
     16          1           0      -13.581295    5.648439   12.182307
 ---------------------------------------------------------------------
                    Distance matrix (angstroms):
                    1          2          3          4          5
     1  N    0.000000
     2  N    2.377094   0.000000
     3  C    1.395718   1.384489   0.000000
     4  N    2.365417   2.320653   1.298799   0.000000
     5  C    2.650373   3.530575   2.246391   1.348414   0.000000
     6  C    2.371343   4.114351   2.731552   2.428400   1.375601
     7  O    2.248644   4.623569   3.537369   4.073946   3.577950
     8  C    1.395374   3.680975   2.450724   2.858104   2.416032
     9  N    3.711120   5.460476   4.077052   3.557421   2.257598
    10  C    4.427248   5.723052   4.399824   3.519147   2.204219
    11  H    5.521541   6.793261   5.487762   4.546167   3.269119
    12  N    4.031318   4.763171   3.576150   2.447582   1.399395
    13  H    0.991301   2.653878   2.075056   3.163445   3.514170
    14  H    4.693106   5.113143   4.063223   2.854512   2.092503
    15  H    2.614289   1.008151   2.054318   3.129910   4.255308
    16  H    3.246096   1.008176   2.038987   2.504188   3.837840
                    6          7          8          9         10
     6  C    0.000000
     7  O    2.392938   0.000000
     8  C    1.438567   1.221076   0.000000
     9  N    1.381726   3.099939   2.564329   0.000000
    10  C    2.136348   4.291857   3.543768   1.295656   0.000000
    11  H    3.205024   5.210717   4.578362   2.116116   1.104686
    12  N    2.239825   4.624867   3.588558   2.270774   1.416934
    13  H    3.140459   2.365856   1.947465   4.389110   5.185485
    14  H    3.041420   5.416516   4.359892   3.056058   2.095041
    15  H    4.664292   4.760247   3.991225   6.015392   6.389448
    16  H    4.674156   5.484539   4.464740   5.946815   6.009635
                   11         12         13         14         15
    11  H    0.000000
    12  N    2.220274   0.000000
    13  H    6.255283   4.859840   0.000000
    14  H    2.605870   1.060723   5.592693   0.000000
    15  H    7.466387   5.521682   2.498656   5.978587   0.000000
    16  H    7.025613   4.884807   3.531324   5.139654   1.548792
                   16
    16  H    0.000000
 Stoichiometry    C5H5N5O
 Framework group  C1[X(C5H5N5O)]
 Deg. of freedom    42
 Full point group                 C1      NOp   1
 Largest Abelian subgroup         C1      NOp   1
 Largest concise Abelian subgroup C1      NOp   1
                         Standard orientation:                         
 ---------------------------------------------------------------------
 Center     Atomic      Atomic             Coordinates (Angstroms)
 Number     Number       Type             X           Y           Z
 ---------------------------------------------------------------------
      1          7           0       -1.501238    0.832939    0.001814
      2          7           0       -2.981207   -1.025968   -0.066996
      3          6           0       -1.681205   -0.550500   -0.039892
      4          7           0       -0.689987   -1.389005   -0.004180
      5          6           0        0.544992   -0.850433   -0.058837
      6          6           0        0.842806    0.491616   -0.108746
      7          8           0       -0.180966    2.652951   -0.027053
      8          6           0       -0.242635    1.433571   -0.045386
      9          7           0        2.206546    0.676176    0.015019
     10          6           0        2.715544   -0.510707    0.119689
     11          1           0        3.797695   -0.701803    0.232662
     12          7           0        1.751280   -1.547786    0.071054
     13          1           0       -2.087846    1.388951    0.575764
     14          1           0        1.936937   -2.291758   -0.661864
     15          1           0       -3.662215   -0.549990    0.504005
     16          1           0       -3.111613   -1.974777    0.247922
 ---------------------------------------------------------------------
 Rotational constants (GHZ):      1.9400546      1.1054976      0.7074580
 Standard basis: 6-31+G (6D, 7F)
 There are   153 symmetry adapted cartesian basis functions of A   symmetry.
 There are   153 symmetry adapted basis functions of A   symmetry.
   153 basis functions,   306 primitive gaussians,   153 cartesian basis functions
    39 alpha electrons       39 beta electrons
       nuclear repulsion energy       594.6428403484 Hartrees.
 NAtoms=   16 NActive=   16 NUniq=   16 SFac= 1.00D+00 NAtFMM=   60 NAOKFM=F Big=F
 Integral buffers will be    262144 words long.
 Raffenetti 1 integral format.
 Two-electron integral symmetry is turned on.
 One-electron integrals computed using PRISM.
 NBasis=   153 RedAO= T EigKep=  7.59D-06  NBF=   153
 NBsUse=   153 1.00D-06 EigRej= -1.00D+00 NBFU=   153
 Initial guess from the checkpoint file:  "C:\G09W\Scratch\gxx.chk"
 B after Tr=     0.000000    0.000000    0.000000
         Rot=    0.999966    0.000193   -0.000195   -0.008300 Ang=   0.95 deg.
 ExpMin= 4.38D-02 ExpMax= 5.48D+03 ExpMxC= 8.25D+02 IAcc=2 IRadAn=         4 AccDes= 0.00D+00
 Harris functional with IExCor=  205 and IRadAn=       4 diagonalized for initial guess.
 HarFok:  IExCor=  205 AccDes= 0.00D+00 IRadAn=         4 IDoV= 1 UseB2=F ITyADJ=14
 ICtDFT=  3500011 ScaDFX=  1.000000  1.000000  1.000000  1.000000
 FoFCou: FMM=F IPFlag=           0 FMFlag=      100000 FMFlg1=           0
         NFxFlg=           0 DoJE=T BraDBF=F KetDBF=T FulRan=T
         wScrn=  0.000000 ICntrl=     500 IOpCl=  0 I1Cent=   200000004 NGrid=           0
         NMat0=    1 NMatS0=      1 NMatT0=    0 NMatD0=    1 NMtDS0=    0 NMtDT0=    0
 Petite list used in FoFCou.
 Requested convergence on RMS density matrix=1.00D-08 within 128 cycles.
 Requested convergence on MAX density matrix=1.00D-06.
 Requested convergence on             energy=1.00D-06.
 No special actions if energy rises.
 Initial convergence to 1.0D-05 achieved.  Increase integral accuracy.
 SCF Done:  E(RHF) =  -539.098869489     A.U. after   16 cycles
            NFock= 16  Conv=0.81D-08     -V/T= 2.0000
 Calling FoFJK, ICntrl=      2127 FMM=F ISym2X=0 I1Cent= 0 IOpClX= 0 NMat=1 NMatS=1 NMatT=0.
 ***** Axes restored to original set *****
 -------------------------------------------------------------------
 Center     Atomic                   Forces (Hartrees/Bohr)
 Number     Number              X              Y              Z
 -------------------------------------------------------------------
      1        7          -0.020453999   -0.029647507   -0.006010065
      2        7           0.015162906   -0.039468392    0.010878393
      3        6           0.007212073   -0.009746686    0.007219073
      4        7          -0.013450620    0.014859519    0.016177885
      5        6           0.012580359   -0.001038731   -0.017152893
      6        6          -0.008766049   -0.015975023    0.021555019
      7        8           0.006362032   -0.003135273   -0.001688025
      8        6          -0.000283320    0.016123932   -0.022378895
      9        7          -0.006081631   -0.009181724   -0.011405579
     10        6           0.000172859    0.004410145   -0.027790627
     11        1           0.000898883    0.005007897    0.028465671
     12        7          -0.026975454    0.045192920   -0.003855856
     13        1          -0.001312126    0.013980745    0.021953380
     14        1           0.039395872   -0.032424547    0.008396595
     15        1           0.008651728    0.024576017   -0.005416098
     16        1          -0.013113514    0.016466708   -0.018947978
 -------------------------------------------------------------------
 Cartesian Forces:  Max     0.045192920 RMS     0.018081953

 GradGradGradGradGradGradGradGradGradGradGradGradGradGradGradGradGradGrad
 Berny optimization.
 Using GEDIIS/GDIIS optimizer.
 FormGI is forming the generalized inverse of G from B-inverse, IUseBI=4.
 Internal  Forces:  Max     0.047756612 RMS     0.009805011
 Search for a local minimum.
 Step number   3 out of a maximum of   89
 All quantities printed in internal units (Hartrees-Bohrs-Radians)
 Mixed Optimization -- RFO/linear search
 Update second derivatives using D2CorX and points    2    3
 ITU=  0  1  0
 Use linear search instead of GDIIS.
     Eigenvalues ---    0.01955   0.02043   0.02092   0.02187   0.02235
     Eigenvalues ---    0.02378   0.02599   0.02682   0.02846   0.02935
     Eigenvalues ---    0.03853   0.05026   0.06665   0.10462   0.14012
     Eigenvalues ---    0.15725   0.16000   0.16042   0.23172   0.23723
     Eigenvalues ---    0.24192   0.24763   0.24779   0.24983   0.25343
     Eigenvalues ---    0.29181   0.33623   0.37695   0.41041   0.47521
     Eigenvalues ---    0.47607   0.48738   0.49421   0.51200   0.53241
     Eigenvalues ---    0.55650   0.57165   0.61206   0.62276   0.70899
     Eigenvalues ---    0.75131   0.87548
 RFO step:  Lambda=-3.30730030D-02 EMin= 1.95487268D-02
 Quartic linear search produced a step of -0.03282.
 Iteration  1 RMS(Cart)=  0.05636942 RMS(Int)=  0.00457508
 Iteration  2 RMS(Cart)=  0.00412746 RMS(Int)=  0.00144758
 Iteration  3 RMS(Cart)=  0.00002286 RMS(Int)=  0.00144733
 Iteration  4 RMS(Cart)=  0.00000007 RMS(Int)=  0.00144733
 Variable       Old X    -DE/DX   Delta X   Delta X   Delta X     New X
                                 (Linear)    (Quad)   (Total)
    R1        2.63752  -0.01547  -0.00089  -0.02875  -0.02907   2.60846
    R2        2.63687   0.01919  -0.00153   0.03165   0.03072   2.66759
    R3        1.87329   0.00778   0.00510   0.01875   0.02385   1.89713
    R4        2.61631  -0.01590  -0.00612  -0.01943  -0.02554   2.59076
    R5        1.90513  -0.00384   0.00599  -0.01481  -0.00883   1.89630
    R6        1.90518  -0.00624  -0.00057  -0.01146  -0.01203   1.89315
    R7        2.45438  -0.00744   0.00069  -0.01105  -0.01025   2.44412
    R8        2.54813   0.01185   0.00113   0.02169   0.02225   2.57038
    R9        2.59951  -0.01262   0.00153  -0.02412  -0.02346   2.57605
   R10        2.64447  -0.01001  -0.00216  -0.01892  -0.02078   2.62369
   R11        2.71850  -0.00538  -0.00064  -0.01089  -0.01160   2.70690
   R12        2.61108   0.01078  -0.00215   0.01828   0.01569   2.62678
   R13        2.30750   0.00445   0.00269   0.00577   0.00845   2.31595
   R14        2.44844  -0.01212   0.00243  -0.01920  -0.01681   2.43162
   R15        2.08755  -0.02866  -0.00721  -0.04489  -0.05210   2.03545
   R16        2.67762  -0.00477  -0.00438  -0.00974  -0.01373   2.66389
   R17        2.00448  -0.04776  -0.00849  -0.05629  -0.06478   1.93969
    A1        2.14355   0.00297   0.00063   0.01991   0.01831   2.16186
    A2        2.09088  -0.00693   0.00184  -0.01227  -0.01724   2.07365
    A3        1.88799   0.00982  -0.00344   0.08490   0.07710   1.96509
    A4        2.04998  -0.00286   0.00139   0.01176   0.01169   2.06167
    A5        2.02477  -0.01374   0.00124  -0.04152  -0.04179   1.98298
    A6        1.75182   0.02576  -0.00567   0.17608   0.16828   1.92010
    A7        2.05112  -0.00630   0.00015  -0.01795  -0.01934   2.03177
    A8        2.14206   0.00344  -0.00132   0.00768   0.00668   2.14873
    A9        2.08913   0.00306   0.00108   0.01349   0.01303   2.10216
   A10        2.02640  -0.00512   0.00129  -0.02144  -0.01974   2.00666
   A11        2.20114   0.00361  -0.00120   0.01612   0.01426   2.21540
   A12        2.19776  -0.00112   0.00283  -0.00165   0.00121   2.19898
   A13        1.87855  -0.00242  -0.00165  -0.01350  -0.01451   1.86404
   A14        2.06447   0.00280  -0.00087   0.01044   0.00951   2.07398
   A15        1.91850  -0.00010   0.00055   0.00453   0.00460   1.92311
   A16        2.28273  -0.00231   0.00027  -0.00616  -0.00643   2.27630
   A17        1.98254  -0.00750   0.00142  -0.02834  -0.02563   1.95692
   A18        2.06564   0.00482   0.00237   0.01681   0.01843   2.08407
   A19        2.23500   0.00267  -0.00380   0.01149   0.00700   2.24199
   A20        1.84691  -0.00120  -0.00069   0.00157   0.00084   1.84775
   A21        2.15503   0.00545   0.00039   0.02734   0.02668   2.18172
   A22        1.98270  -0.00328  -0.00066  -0.01689  -0.01751   1.96519
   A23        2.14545  -0.00215   0.00027  -0.01024  -0.01086   2.13459
   A24        1.79781   0.00703   0.00245   0.02529   0.02638   1.82420
   A25        2.02223   0.00128  -0.00268   0.03939   0.03304   2.05527
   A26        2.00199   0.00259  -0.00305   0.05312   0.04697   2.04896
    D1       -3.07550   0.00443  -0.00132   0.05588   0.05340  -3.02210
    D2        0.11152  -0.00082   0.00020  -0.02674  -0.02674   0.08478
    D3        0.71460  -0.00945   0.00161  -0.14071  -0.13751   0.57709
    D4       -2.38156  -0.01470   0.00313  -0.22333  -0.21766  -2.59922
    D5       -0.02412  -0.00074   0.00020  -0.01057  -0.01136  -0.03548
    D6        3.11950   0.00060  -0.00070   0.00816   0.00649   3.12599
    D7        2.53312   0.00663  -0.00081   0.13791   0.14034   2.67347
    D8       -0.60644   0.00796  -0.00171   0.15664   0.15819  -0.44825
    D9       -0.68220   0.00901  -0.00199   0.07837   0.07736  -0.60484
   D10        2.41540   0.01412  -0.00359   0.15826   0.15508   2.57048
   D11       -2.75283  -0.01298   0.00378  -0.14332  -0.13995  -2.89279
   D12        0.34477  -0.00787   0.00218  -0.06343  -0.06223   0.28253
   D13       -0.11191   0.00209  -0.00033   0.04659   0.04668  -0.06523
   D14        3.07607  -0.00304   0.00127  -0.03698  -0.03577   3.04030
   D15        0.03519  -0.00150   0.00004  -0.02914  -0.02976   0.00543
   D16        3.04753  -0.00084  -0.00035  -0.01908  -0.01931   3.02821
   D17        0.04592  -0.00033   0.00042  -0.00785  -0.00778   0.03814
   D18        3.00916   0.00132   0.00023   0.03571   0.03611   3.04527
   D19       -2.98592  -0.00088   0.00044  -0.01672  -0.01718  -3.00310
   D20       -0.02268   0.00077   0.00024   0.02685   0.02671   0.00403
   D21       -3.00966  -0.00219  -0.00026  -0.05166  -0.05222  -3.06189
   D22        1.07325  -0.01173   0.00346  -0.16433  -0.16161   0.91165
   D23        0.02245  -0.00127  -0.00063  -0.04139  -0.04187  -0.01942
   D24       -2.17782  -0.01080   0.00309  -0.15406  -0.15126  -2.32908
   D25       -0.04731   0.00139  -0.00056   0.02627   0.02664  -0.02068
   D26        3.09201  -0.00010   0.00034   0.00533   0.00679   3.09880
   D27       -2.96678  -0.00111  -0.00031  -0.02989  -0.02944  -2.99623
   D28        0.17254  -0.00260   0.00059  -0.05082  -0.04929   0.12325
   D29        0.01255   0.00028   0.00027   0.00203   0.00216   0.01471
   D30        2.94630   0.00295  -0.00011   0.05530   0.05511   3.00141
   D31        3.14056   0.00236  -0.00083   0.03365   0.03451  -3.10812
   D32        0.00256  -0.00121  -0.00071  -0.03071  -0.03057  -0.02801
   D33       -0.01590   0.00159   0.00085   0.04603   0.04649   0.03059
   D34        2.19732   0.01011  -0.00264   0.14855   0.14653   2.34385
   D35        3.12926  -0.00197   0.00097  -0.01802  -0.01666   3.11260
   D36       -0.94071   0.00655  -0.00252   0.08450   0.08338  -0.85734
         Item               Value     Threshold  Converged?
 Maximum Force            0.047757     0.000450     NO 
 RMS     Force            0.009805     0.000300     NO 
 Maximum Displacement     0.207654     0.001800     NO 
 RMS     Displacement     0.056512     0.001200     NO 
 Predicted change in Energy=-2.255595D-02
 GradGradGradGradGradGradGradGradGradGradGradGradGradGradGradGradGradGrad

                          Input orientation:                          
 ---------------------------------------------------------------------
 Center     Atomic      Atomic             Coordinates (Angstroms)
 Number     Number       Type             X           Y           Z
 ---------------------------------------------------------------------
      1          7           0      -11.299846    7.050980   10.393341
      2          7           0      -12.867613    6.343105   11.977475
      3          6           0      -12.516812    6.455278   10.656899
      4          7           0      -13.321311    6.050803    9.728462
      5          6           0      -12.918020    6.326329    8.458993
      6          6           0      -11.774169    6.965774    8.083509
      7          8           0       -9.756348    7.915957    8.956996
      8          6           0      -10.845848    7.372199    9.095882
      9          7           0      -11.649171    6.951833    6.699181
     10          6           0      -12.692156    6.340946    6.257876
     11          1           0      -12.892944    6.131695    5.220535
     12          7           0      -13.534780    5.890031    7.294134
     13          1           0      -10.546722    6.921550   11.044423
     14          1           0      -14.541595    6.062260    7.192913
     15          1           0      -12.139745    6.175885   12.647712
     16          1           0      -13.632037    5.715744   12.137777
 ---------------------------------------------------------------------
                    Distance matrix (angstroms):
                    1          2          3          4          5
     1  N    0.000000
     2  N    2.338474   0.000000
     3  C    1.380337   1.370972   0.000000
     4  N    2.351326   2.312864   1.293373   0.000000
     5  C    2.623987   3.518883   2.237942   1.360187   0.000000
     6  C    2.359569   4.092225   2.726621   2.436532   1.363185
     7  O    2.278960   4.612713   3.555758   4.096696   3.573667
     8  C    1.411629   3.667444   2.463664   2.876484   2.406942
     9  N    3.711964   5.451196   4.082021   3.575535   2.257913
    10  C    4.420944   5.722290   4.404001   3.539066   2.212724
    11  H    5.490079   6.760294   5.458959   4.528957   3.244399
    12  N    3.993471   4.752270   3.558644   2.448953   1.388397
    13  H    1.003921   2.567435   2.061271   3.191911   3.558341
    14  H    4.661463   5.076724   4.031551   2.813936   2.075737
    15  H    2.559963   1.003480   2.045380   3.151788   4.263064
    16  H    3.203908   1.001810   1.995905   2.452267   3.796852
                    6          7          8          9         10
     6  C    0.000000
     7  O    2.395293   0.000000
     8  C    1.432431   1.225549   0.000000
     9  N    1.390030   3.100007   2.562462   0.000000
    10  C    2.136831   4.287759   3.539296   1.286760   0.000000
    11  H    3.184960   5.194514   4.554972   2.099046   1.077116
    12  N    2.209092   4.598482   3.559982   2.244307   1.409670
    13  H    3.205557   2.443540   2.022220   4.483017   5.277407
    14  H    3.044363   5.426487   4.358414   3.066142   2.091024
    15  H    4.646453   4.725443   3.964951   6.018952   6.415794
    16  H    4.631559   5.475332   4.445202   5.919290   5.987277
                   11         12         13         14         15
    11  H    0.000000
    12  N    2.184072   0.000000
    13  H    6.328215   4.904813   0.000000
    14  H    2.571603   1.026442   5.615293   0.000000
    15  H    7.465402   5.539732   2.379974   5.961261   0.000000
    16  H    6.969039   4.847753   3.488346   5.039747   1.642772
                   16
    16  H    0.000000
 Stoichiometry    C5H5N5O
 Framework group  C1[X(C5H5N5O)]
 Deg. of freedom    42
 Full point group                 C1      NOp   1
 Largest Abelian subgroup         C1      NOp   1
 Largest concise Abelian subgroup C1      NOp   1
                         Standard orientation:                         
 ---------------------------------------------------------------------
 Center     Atomic      Atomic             Coordinates (Angstroms)
 Number     Number       Type             X           Y           Z
 ---------------------------------------------------------------------
      1          7           0       -1.495955    0.809622    0.022815
      2          7           0       -2.977114   -0.996997   -0.080901
      3          6           0       -1.680588   -0.558048   -0.004030
      4          7           0       -0.701747   -1.403416    0.002010
      5          6           0        0.538347   -0.846442   -0.043336
      6          6           0        0.838251    0.482618   -0.087262
      7          8           0       -0.163254    2.657635   -0.026305
      8          6           0       -0.231497    1.434061   -0.039776
      9          7           0        2.213206    0.667210   -0.000037
     10          6           0        2.722465   -0.512105    0.074944
     11          1           0        3.772574   -0.725898    0.183311
     12          7           0        1.742915   -1.525826    0.079535
     13          1           0       -2.187112    1.382399    0.472353
     14          1           0        1.899068   -2.336281   -0.530680
     15          1           0       -3.685388   -0.464964    0.390543
     16          1           0       -3.084115   -1.970984    0.127723
 ---------------------------------------------------------------------
 Rotational constants (GHZ):      1.9551762      1.1072671      0.7090628
 Standard basis: 6-31+G (6D, 7F)
 There are   153 symmetry adapted cartesian basis functions of A   symmetry.
 There are   153 symmetry adapted basis functions of A   symmetry.
   153 basis functions,   306 primitive gaussians,   153 cartesian basis functions
    39 alpha electrons       39 beta electrons
       nuclear repulsion energy       595.9405021633 Hartrees.
 NAtoms=   16 NActive=   16 NUniq=   16 SFac= 1.00D+00 NAtFMM=   60 NAOKFM=F Big=F
 Integral buffers will be    262144 words long.
 Raffenetti 1 integral format.
 Two-electron integral symmetry is turned on.
 One-electron integrals computed using PRISM.
 NBasis=   153 RedAO= T EigKep=  6.94D-06  NBF=   153
 NBsUse=   153 1.00D-06 EigRej= -1.00D+00 NBFU=   153
 Initial guess from the checkpoint file:  "C:\G09W\Scratch\gxx.chk"
 B after Tr=     0.000000    0.000000    0.000000
         Rot=    0.999999    0.000398    0.000173    0.001641 Ang=   0.19 deg.
 ExpMin= 4.38D-02 ExpMax= 5.48D+03 ExpMxC= 8.25D+02 IAcc=2 IRadAn=         4 AccDes= 0.00D+00
 Harris functional with IExCor=  205 and IRadAn=       4 diagonalized for initial guess.
 HarFok:  IExCor=  205 AccDes= 0.00D+00 IRadAn=         4 IDoV= 1 UseB2=F ITyADJ=14
 ICtDFT=  3500011 ScaDFX=  1.000000  1.000000  1.000000  1.000000
 FoFCou: FMM=F IPFlag=           0 FMFlag=      100000 FMFlg1=           0
         NFxFlg=           0 DoJE=T BraDBF=F KetDBF=T FulRan=T
[...]
 ! A25   A(5,12,14)            125.5954         -DE/DX =    0.0                 !
 ! A26   A(10,12,14)           127.4511         -DE/DX =    0.0                 !
 ! D1    D(8,1,3,2)            180.0209         -DE/DX =    0.0                 !
 ! D2    D(8,1,3,4)              0.0122         -DE/DX =    0.0                 !
 ! D3    D(13,1,3,2)            -0.0256         -DE/DX =    0.0                 !
 ! D4    D(13,1,3,4)           179.9657         -DE/DX =    0.0                 !
 ! D5    D(3,1,8,6)             -0.0391         -DE/DX =    0.0                 !
 ! D6    D(3,1,8,7)           -180.0152         -DE/DX =    0.0                 !
 ! D7    D(13,1,8,6)          -179.9952         -DE/DX =    0.0                 !
 ! D8    D(13,1,8,7)             0.0287         -DE/DX =    0.0                 !
 ! D9    D(15,2,3,1)             0.048          -DE/DX =    0.0                 !
 ! D10   D(15,2,3,4)          -179.9436         -DE/DX =    0.0                 !
 ! D11   D(16,2,3,1)          -179.862          -DE/DX =    0.0                 !
 ! D12   D(16,2,3,4)             0.1464         -DE/DX =    0.0                 !
 ! D13   D(1,3,4,5)              0.016          -DE/DX =    0.0                 !
 ! D14   D(2,3,4,5)           -179.9929         -DE/DX =    0.0                 !
 ! D15   D(3,4,5,6)             -0.0142         -DE/DX =    0.0                 !
 ! D16   D(3,4,5,12)          -180.0142         -DE/DX =    0.0                 !
 ! D17   D(4,5,6,8)             -0.0155         -DE/DX =    0.0                 !
 ! D18   D(4,5,6,9)           -179.985          -DE/DX =    0.0                 !
 ! D19   D(12,5,6,8)           179.9845         -DE/DX =    0.0                 !
 ! D20   D(12,5,6,9)             0.015          -DE/DX =    0.0                 !
 ! D21   D(4,5,12,10)         -180.0059         -DE/DX =    0.0                 !
 ! D22   D(4,5,12,14)           -0.0292         -DE/DX =    0.0                 !
 ! D23   D(6,5,12,10)           -0.0059         -DE/DX =    0.0                 !
 ! D24   D(6,5,12,14)         -180.0292         -DE/DX =    0.0                 !
 ! D25   D(5,6,8,1)              0.0385         -DE/DX =    0.0                 !
 ! D26   D(5,6,8,7)           -179.9891         -DE/DX =    0.0                 !
 ! D27   D(9,6,8,1)            180.0004         -DE/DX =    0.0                 !
 ! D28   D(9,6,8,7)             -0.0272         -DE/DX =    0.0                 !
 ! D29   D(5,6,9,10)            -0.0185         -DE/DX =    0.0                 !
 ! D30   D(8,6,9,10)          -179.9832         -DE/DX =    0.0                 !
 ! D31   D(6,9,10,11)          180.0091         -DE/DX =    0.0                 !
 ! D32   D(6,9,10,12)            0.0148         -DE/DX =    0.0                 !
 ! D33   D(9,10,12,5)           -0.0059         -DE/DX =    0.0                 !
 ! D34   D(9,10,12,14)         180.018          -DE/DX =    0.0                 !
 ! D35   D(11,10,12,5)         179.9996         -DE/DX =    0.0                 !
 ! D36   D(11,10,12,14)          0.0234         -DE/DX =    0.0                 !
 --------------------------------------------------------------------------------
 GradGradGradGradGradGradGradGradGradGradGradGradGradGradGradGradGradGrad

                          Input orientation:                          
 ---------------------------------------------------------------------
 Center     Atomic      Atomic             Coordinates (Angstroms)
 Number     Number       Type             X           Y           Z
 ---------------------------------------------------------------------
      1          7           0      -11.273890    6.951076   10.368092
      2          7           0      -12.806339    6.180991   11.935129
      3          6           0      -12.488729    6.387063   10.639602
      4          7           0      -13.334901    6.048153    9.705639
      5          6           0      -12.898297    6.306452    8.442598
      6          6           0      -11.699610    6.867832    8.071885
      7          8           0       -9.656950    7.751185    8.989295
      8          6           0      -10.766016    7.243517    9.080696
      9          7           0      -11.633982    6.963981    6.688609
     10          6           0      -12.750874    6.478054    6.250804
     11          1           0      -13.037766    6.396698    5.229261
     12          7           0      -13.566920    6.058161    7.290446
     13          1           0      -10.656128    7.196193   11.109804
     14          1           0      -14.468408    5.652053    7.222681
     15          1           0      -12.204361    6.418922   12.684524
     16          1           0      -13.685948    5.770039   12.137044
 ---------------------------------------------------------------------
                    Distance matrix (angstroms):
                    1          2          3          4          5
     1  N    0.000000
     2  N    2.323152   0.000000
     3  C    1.366624   1.349715   0.000000
     4  N    2.345608   2.295136   1.305050   0.000000
     5  C    2.600339   3.495993   2.236307   1.361107   0.000000
     6  C    2.336821   4.076917   2.728922   2.452590   1.374564
     7  O    2.270628   4.589346   3.550115   4.115919   3.590607
     8  C    1.414513   3.666015   2.476175   2.901485   2.414929
     9  N    3.697084   5.432630   4.083354   3.582504   2.259937
    10  C    4.399692   5.692352   4.397562   3.530125   2.203439
    11  H    5.461335   6.713326   5.438136   4.499748   3.217628
    12  N    3.940455   4.708146   3.533768   2.426332   1.355049
    13  H    0.995916   2.516983   2.057719   3.235043   3.596241
    14  H    4.667550   5.024879   4.016805   2.758045   2.093248
    15  H    2.552415   0.990244   2.064845   3.207702   4.299783
    16  H    3.215908   0.991647   2.014047   2.472310   3.815372
                    6          7          8          9         10
     6  C    0.000000
     7  O    2.407159   0.000000
     8  C    1.424933   1.223155   0.000000
     9  N    1.388166   3.133928   2.559997   0.000000
    10  C    2.138555   4.323489   3.540322   1.294313   0.000000
    11  H    3.176971   5.234731   4.550989   2.102883   1.064179
    12  N    2.180151   4.586969   3.529182   2.217875   1.386758
    13  H    3.228874   2.408928   2.032633   4.533993   5.339810
    14  H    3.140941   5.538720   4.437644   3.168653   2.139333
    15  H    4.661838   4.681768   3.966910   6.047597   6.457161
    16  H    4.655771   5.483255   4.476428   5.943191   6.001956
                   11         12         13         14         15
    11  H    0.000000
    12  N    2.154784   0.000000
    13  H    6.394700   4.935111   0.000000
    14  H    2.564168   0.991059   5.659292   0.000000
    15  H    7.501734   5.575194   2.341137   5.962024   0.000000
    16  H    6.966370   4.856613   3.502706   4.977663   1.707595
                   16
    16  H    0.000000
 Stoichiometry    C5H5N5O
 Framework group  C1[X(C5H5N5O)]
 Deg. of freedom    42
 Full point group                 C1      NOp   1
 Largest Abelian subgroup         C1      NOp   1
 Largest concise Abelian subgroup C1      NOp   1
                         Standard orientation:                         
 ---------------------------------------------------------------------
 Center     Atomic      Atomic             Coordinates (Angstroms)
 Number     Number       Type             X           Y           Z
 ---------------------------------------------------------------------
      1          7           0       -1.481061    0.784490    0.000237
      2          7           0       -2.945201   -1.019209   -0.000057
      3          6           0       -1.672927   -0.568599   -0.000003
      4          7           0       -0.685714   -1.422159   -0.000344
      5          6           0        0.546387   -0.843766   -0.000092
      6          6           0        0.838310    0.499442    0.000194
      7          8           0       -0.210278    2.666208   -0.000098
      8          6           0       -0.229283    1.443201   -0.000089
      9          7           0        2.214570    0.680859    0.000046
     10          6           0        2.724230   -0.508886    0.000087
     11          1           0        3.762425   -0.742610    0.000141
     12          7           0        1.739788   -1.485601   -0.000074
     13          1           0       -2.261521    1.403143   -0.000019
     14          1           0        1.866114   -2.468576    0.000166
     15          1           0       -3.732296   -0.418324   -0.000626
     16          1           0       -3.089474   -2.000302    0.001881
 ---------------------------------------------------------------------
 Rotational constants (GHZ):      1.9524824      1.1171752      0.7105890

 **********************************************************************

            Population analysis using the SCF density.

 **********************************************************************

 Orbital symmetries:
       Occupied  (A) (A) (A) (A) (A) (A) (A) (A) (A) (A) (A) (A)
                 (A) (A) (A) (A) (A) (A) (A) (A) (A) (A) (A) (A)
                 (A) (A) (A) (A) (A) (A) (A) (A) (A) (A) (A) (A)
                 (A) (A) (A)
       Virtual   (A) (A) (A) (A) (A) (A) (A) (A) (A) (A) (A) (A)
                 (A) (A) (A) (A) (A) (A) (A) (A) (A) (A) (A) (A)
                 (A) (A) (A) (A) (A) (A) (A) (A) (A) (A) (A) (A)
                 (A) (A) (A) (A) (A) (A) (A) (A) (A) (A) (A) (A)
                 (A) (A) (A) (A) (A) (A) (A) (A) (A) (A) (A) (A)
                 (A) (A) (A) (A) (A) (A) (A) (A) (A) (A) (A) (A)
                 (A) (A) (A) (A) (A) (A) (A) (A) (A) (A) (A) (A)
                 (A) (A) (A) (A) (A) (A) (A) (A) (A) (A) (A) (A)
                 (A) (A) (A) (A) (A) (A) (A) (A) (A) (A) (A) (A)
                 (A) (A) (A) (A) (A) (A)
 The electronic state is 1-A.
 Alpha  occ. eigenvalues --  -20.54346 -15.64725 -15.64331 -15.62270 -15.58746
 Alpha  occ. eigenvalues --  -15.58545 -11.42554 -11.39329 -11.34755 -11.32426
 Alpha  occ. eigenvalues --  -11.26733  -1.42678  -1.39138  -1.36661  -1.24614
 Alpha  occ. eigenvalues --   -1.24188  -1.19879  -1.06221  -0.92875  -0.91280
 Alpha  occ. eigenvalues --   -0.85550  -0.82926  -0.76706  -0.75906  -0.72580
 Alpha  occ. eigenvalues --   -0.69389  -0.67689  -0.65073  -0.62293  -0.61413
 Alpha  occ. eigenvalues --   -0.61248  -0.56176  -0.48890  -0.45769  -0.44312
 Alpha  occ. eigenvalues --   -0.43785  -0.42716  -0.41492  -0.31123
 Alpha virt. eigenvalues --    0.04360   0.05985   0.08106   0.08802   0.09168
 Alpha virt. eigenvalues --    0.09922   0.11022   0.12331   0.12374   0.13067
 Alpha virt. eigenvalues --    0.13667   0.14289   0.15820   0.16183   0.17681
 Alpha virt. eigenvalues --    0.18557   0.18700   0.19454   0.20147   0.20464
 Alpha virt. eigenvalues --    0.21755   0.23019   0.24457   0.25418   0.26030
 Alpha virt. eigenvalues --    0.26099   0.26736   0.27083   0.29219   0.30143
 Alpha virt. eigenvalues --    0.31008   0.31228   0.31261   0.32134   0.34531
 Alpha virt. eigenvalues --    0.35087   0.35350   0.35986   0.36385   0.36600
 Alpha virt. eigenvalues --    0.37118   0.37837   0.39944   0.40511   0.40882
 Alpha virt. eigenvalues --    0.42604   0.43855   0.44252   0.44761   0.45926
 Alpha virt. eigenvalues --    0.47133   0.47981   0.49704   0.50438   0.52398
 Alpha virt. eigenvalues --    0.53575   0.54250   0.57479   0.61209   0.64059
 Alpha virt. eigenvalues --    0.64760   0.69360   0.76115   0.85054   0.87357
 Alpha virt. eigenvalues --    0.89357   0.92384   0.93521   0.94710   1.01233
 Alpha virt. eigenvalues --    1.03407   1.04332   1.07272   1.09332   1.10851
 Alpha virt. eigenvalues --    1.13871   1.14882   1.17826   1.17835   1.18428
 Alpha virt. eigenvalues --    1.21603   1.21810   1.24471   1.27010   1.28777
 Alpha virt. eigenvalues --    1.29847   1.30943   1.33144   1.33911   1.35767
 Alpha virt. eigenvalues --    1.36824   1.38901   1.40076   1.41365   1.44238
 Alpha virt. eigenvalues --    1.45918   1.47683   1.50665   1.59622   1.60476
 Alpha virt. eigenvalues --    1.63887   1.66684   1.69801   1.73089   1.74855
 Alpha virt. eigenvalues --    1.79616   1.84886   1.88972   1.95622   2.08996
 Alpha virt. eigenvalues --    2.13534   2.20042   2.41619   2.68197
          Condensed to atoms (all electrons):
               1          2          3          4          5          6
     1  N    9.265526  -0.331572  -0.585482  -0.018417   0.422365  -1.343976
     2  N   -0.331572   7.703731   0.269405  -0.255796  -0.031851   0.034461
     3  C   -0.585482   0.269405   6.494414   0.384180  -2.190693   1.844771
     4  N   -0.018417  -0.255796   0.384180   7.329198  -0.057818   0.438780
     5  C    0.422365  -0.031851  -2.190693  -0.057818  16.547430 -10.186610
     6  C   -1.343976   0.034461   1.844771   0.438780 -10.186610  22.461042
     7  O   -0.200808   0.002683   0.083322  -0.007838  -0.158903  -0.069608
     8  C    0.534852  -0.027582  -0.985521  -0.222275   1.430718  -7.240231
     9  N    0.015803  -0.000541  -0.021180  -0.000289   0.888747  -0.292517
    10  C   -0.037237  -0.005520  -0.116828   0.085011  -0.960157   0.419912
    11  H   -0.000086  -0.000019   0.001039   0.000726  -0.046315   0.092005
    12  N   -0.057034   0.019202   0.042224  -0.179548  -0.102659  -0.091764
    13  H    0.285567   0.000818  -0.034442   0.000915   0.011543   0.057072
    14  H    0.000140  -0.000222   0.000623   0.007602  -0.015340   0.027706
    15  H    0.001247   0.303113  -0.032044   0.012239   0.010543  -0.004019
    16  H    0.024364   0.268988  -0.003299   0.005035   0.004387  -0.002518
               7          8          9         10         11         12
     1  N   -0.200808   0.534852   0.015803  -0.037237  -0.000086  -0.057034
     2  N    0.002683  -0.027582  -0.000541  -0.005520  -0.000019   0.019202
     3  C    0.083322  -0.985521  -0.021180  -0.116828   0.001039   0.042224
     4  N   -0.007838  -0.222275  -0.000289   0.085011   0.000726  -0.179548
     5  C   -0.158903   1.430718   0.888747  -0.960157  -0.046315  -0.102659
     6  C   -0.069608  -7.240231  -0.292517   0.419912   0.092005  -0.091764
     7  O    8.596916   0.389591  -0.009262   0.013956   0.000036   0.003764
     8  C    0.389591  12.045232  -0.384178  -0.253102   0.013404   0.137699
     9  N   -0.009262  -0.384178   7.073055   0.218894  -0.048622  -0.129678
    10  C    0.013956  -0.253102   0.218894   6.041531   0.377943  -0.191472
    11  H    0.000036   0.013404  -0.048622   0.377943   0.422446  -0.075642
    12  N    0.003764   0.137699  -0.129678  -0.191472  -0.075642   8.226415
    13  H    0.004714  -0.042626   0.000733   0.001791   0.000000   0.000073
    14  H    0.000013   0.001413   0.000452   0.003014   0.002000   0.264889
    15  H    0.000013   0.003262  -0.000006   0.000260   0.000000   0.000230
    16  H   -0.000018   0.000898   0.000077   0.000189   0.000000  -0.001173
              13         14         15         16
     1  N    0.285567   0.000140   0.001247   0.024364
     2  N    0.000818  -0.000222   0.303113   0.268988
     3  C   -0.034442   0.000623  -0.032044  -0.003299
     4  N    0.000915   0.007602   0.012239   0.005035
     5  C    0.011543  -0.015340   0.010543   0.004387
     6  C    0.057072   0.027706  -0.004019  -0.002518
     7  O    0.004714   0.000013   0.000013  -0.000018
     8  C   -0.042626   0.001413   0.003262   0.000898
     9  N    0.000733   0.000452  -0.000006   0.000077
    10  C    0.001791   0.003014   0.000260   0.000189
    11  H    0.000000   0.002000   0.000000   0.000000
    12  N    0.000073   0.264889   0.000230  -0.001173
    13  H    0.222974   0.000000   0.000185   0.000063
    14  H    0.000000   0.220163   0.000000   0.000002
    15  H    0.000185   0.000000   0.270685  -0.004143
    16  H    0.000063   0.000002  -0.004143   0.252863
 Mulliken charges:
               1
     1  N   -0.975251
     2  N   -0.949299
     3  C    0.849510
     4  N   -0.521705
     5  C    0.434612
     6  C   -0.144507
     7  O   -0.648571
     8  C    0.598445
     9  N   -0.311489
    10  C    0.401816
    11  H    0.261083
    12  N   -0.865527
    13  H    0.490619
    14  H    0.487546
    15  H    0.438434
    16  H    0.454285
 Sum of Mulliken charges =   0.00000
 Mulliken charges with hydrogens summed into heavy atoms:
               1
     1  N   -0.484632
     2  N   -0.056579
     3  C    0.849510
     4  N   -0.521705
     5  C    0.434612
     6  C   -0.144507
     7  O   -0.648571
     8  C    0.598445
     9  N   -0.311489
    10  C    0.662899
    12  N   -0.377981
 Electronic spatial extent (au):  <R**2>=           1510.8221
 Charge=              0.0000 electrons
 Dipole moment (field-independent basis, Debye):
    X=             -4.0310    Y=             -6.4538    Z=              0.0032  Tot=              7.6093
 Quadrupole moment (field-independent basis, Debye-Ang):
   XX=            -40.9152   YY=            -75.6420   ZZ=            -66.5131
   XY=            -10.9335   XZ=             -0.0066   YZ=             -0.0126
 Traceless Quadrupole moment (field-independent basis, Debye-Ang):
   XX=             20.1082   YY=            -14.6185   ZZ=             -5.4897
   XY=            -10.9335   XZ=             -0.0066   YZ=             -0.0126
 Octapole moment (field-independent basis, Debye-Ang**2):
  XXX=            -58.3154  YYY=            -63.7017  ZZZ=              0.0005  XYY=             -3.6580
  XXY=            -32.5698  XXZ=              0.0247  XZZ=             -1.7466  YZZ=              3.3349
  YYZ=              0.0277  XYZ=              0.0273
 Hexadecapole moment (field-independent basis, Debye-Ang**3):
 XXXX=           -866.4261 YYYY=           -781.5588 ZZZZ=            -67.5847 XXXY=            -56.8476
 XXXZ=             -0.0518 YYYX=            -27.5871 YYYZ=             -0.0505 ZZZX=             -0.0050
 ZZZY=             -0.0097 XXYY=           -258.2684 XXZZ=           -238.1506 YYZZ=           -131.4657
 XXYZ=             -0.0987 YYXZ=             -0.0563 ZZXY=             -4.2899
 N-N= 5.976289863057D+02 E-N=-2.457913910462D+03  KE= 5.393730787617D+02
 1|1|UNPC-LAPTOP-J1V6RRVE|FOpt|RHF|6-31+G|C5H5N5O1|URIEL FC|04-Dec-2023
 |0||#opt HF 6-31+||Guanina opt||0,1|N,-11.2738900263,6.9510756264,10.3
 680922479|N,-12.8063388852,6.1809906114,11.9351286007|C,-12.4887289983
 ,6.3870629875,10.6396022396|N,-13.3349005424,6.0481532365,9.7056385379
 |C,-12.8982966324,6.3064521517,8.4425981506|C,-11.6996100799,6.8678321
 194,8.0718853713|O,-9.6569499846,7.7511853433,8.9892949277|C,-10.76601
 59927,7.2435171974,9.0806955785|N,-11.6339815123,6.9639806954,6.688608
 6471|C,-12.7508738334,6.4780541715,6.2508041293|H,-13.0377662157,6.396
 6977318,5.2292609716|N,-13.5669195256,6.0581605487,7.2904464098|H,-10.
 6561278916,7.1961934446,11.1098043361|H,-14.4684084834,5.6520530659,7.
 2226809205|H,-12.2043613242,6.4189215441,12.6845244628|H,-13.685947935
 2,5.7700392314,12.1370443014||Version=IA32W-G09RevD.01|State=1-A|HF=-5
 39.1547418|RMSD=6.790e-009|RMSF=4.857e-005|Dipole=-2.1907803,-1.078446
 7,1.7319984|Quadrupole=-8.5226405,-5.3397289,13.8623693,-2.4400248,9.0
 593058,3.2462301|PG=C01 [X(C5H5N5O1)]||@


 THE THINKER DIES, BUT HIS THOUGHTS ARE BEYOND THE 
 REACH OF DESTRUCTION.  MEN ARE MORTAL; BUT IDEAS 
 ARE IMMORTAL.
                              -- WALTER LIPPMANN
 Job cpu time:       0 days  0 hours  9 minutes 25.0 seconds.
 File lengths (MBytes):  RWF=     16 Int=      0 D2E=      0 Chk=      3 Scr=      1
 Normal termination of Gaussian 09 at Mon Dec 04 21:41:44 2023.
