 Entering Link 1 = C:\G09W\l1.exe PID=     11760.
  
 Copyright (c) 1988,1990,1992,1993,1995,1998,2003,2009,2013,
            Gaussian, Inc.  All Rights Reserved.
  
 This is part of the Gaussian(R) 09 program.  It is based on
 the Gaussian(R) 03 system (copyright 2003, Gaussian, Inc.),
 the Gaussian(R) 98 system (copyright 1998, Gaussian, Inc.),
 the Gaussian(R) 94 system (copyright 1995, Gaussian, Inc.),
 the Gaussian 92(TM) system (copyright 1992, Gaussian, Inc.),
 the Gaussian 90(TM) system (copyright 1990, Gaussian, Inc.),
 the Gaussian 88(TM) system (copyright 1988, Gaussian, Inc.),
 the Gaussian 86(TM) system (copyright 1986, Carnegie Mellon
 University), and the Gaussian 82(TM) system (copyright 1983,
 Carnegie Mellon University). Gaussian is a federally registered
 trademark of Gaussian, Inc.
  
 This software contains proprietary and confidential information,
 including trade secrets, belonging to Gaussian, Inc.
  
 This software is provided under written license and may be
 used, copied, transmitted, or stored only in accord with that
 written license.
  
 The following legend is applicable only to US Government
 contracts under FAR:
  
                    RESTRICTED RIGHTS LEGEND
  
 Use, reproduction and disclosure by the US Government is
 subject to restrictions as set forth in subparagraphs (a)
 and (c) of the Commercial Computer Software - Restricted
 Rights clause in FAR 52.227-19.
  
 Gaussian, Inc.
 340 Quinnipiac St., Bldg. 40, Wallingford CT 06492
  
  
 ---------------------------------------------------------------
 Warning -- This program may not be used in any manner that
 competes with the business of Gaussian, Inc. or will provide
 assistance to any competitor of Gaussian, Inc.  The licensee
 of this program is prohibited from giving any competitor of
 Gaussian, Inc. access to this program.  By using this program,
 the user acknowledges that Gaussian, Inc. is engaged in the
 business of creating and licensing software in the field of
 computational chemistry and represents and warrants to the
 licensee that it is not a competitor of Gaussian, Inc. and that
 it will not use this program in any manner prohibited above.
 ---------------------------------------------------------------
  

 Cite this work as:
 Gaussian 09, Revision D.01,
 M. J. Frisch, G. W. Trucks, H. B. Schlegel, G. E. Scuseria, 
 M. A. Robb, J. R. Cheeseman, G. Scalmani, V. Barone, B. Mennucci, 
 G. A. Petersson, H. Nakatsuji, M. Caricato, X. Li, H. P. Hratchian, 
 A. F. Izmaylov, J. Bloino, G. Zheng, J. L. Sonnenberg, M. Hada, 
 M. Ehara, K. Toyota, R. Fukuda, J. Hasegawa, M. Ishida, T. Nakajima, 
 Y. Honda, O. Kitao, H. Nakai, T. Vreven, J. A. Montgomery, Jr., 
 J. E. Peralta, F. Ogliaro, M. Bearpark, J. J. Heyd, E. Brothers, 
 K. N. Kudin, V. N. Staroverov, T. Keith, R. Kobayashi, J. Normand, 
 K. Raghavachari, A. Rendell, J. C. Burant, S. S. Iyengar, J. Tomasi, 
 M. Cossi, N. Rega, J. M. Millam, M. Klene, J. E. Knox, J. B. Cross, 
 V. Bakken, C. Adamo, J. Jaramillo, R. Gomperts, R. E. Stratmann, 
 O. Yazyev, A. J. Austin, R. Cammi, C. Pomelli, J. W. Ochterski, 
 R. L. Martin, K. Morokuma, V. G. Zakrzewski, G. A. Voth, 
 P. Salvador, J. J. Dannenberg, S. Dapprich, A. D. Daniels, 
 O. Farkas, J. B. Foresman, J. V. Ortiz, J. Cioslowski, 
 and D. J. Fox, Gaussian, Inc., Wallingford CT, 2013.
 
 ******************************************
 Gaussian 09:  IA32W-G09RevD.01 24-Apr-2013
                04-Dec-2023 
 ******************************************
 ------------------------
 # opt=cartesian HF 6-31+
 ------------------------
 1/10=7,18=10,38=1/1,3;
 2/12=2,17=6,18=5,29=2,40=1/2;
 3/5=1,6=6,7=10,11=9,16=1,25=1,30=1,71=1/1,2,3;
 4//1;
 5/5=2,38=5/2;
 6/7=2,8=2,9=2,10=2,28=1/1;
 7/7=1,29=1/1,2,3,16;
 1/10=7,18=10/3(2);
 2/29=1/2;
 99/12=1/99;
 2/29=1/2;
 3/5=1,6=6,7=10,11=9,16=1,25=1,30=1,71=1/1,2,3;
 4/5=5,16=3,69=1/1;
 5/5=2,38=5/2;
 7/7=1/1,2,3,16;
 1/18=10/3(-5);
 2/29=1/2;
 6/7=2,8=2,9=2,10=2,19=2,28=1/1;
 99/9=1,12=1/99;
 -------
 ADENINE
 -------
 Symbolic Z-matrix:
 Charge =  0 Multiplicity = 1
 7                     1.785     0.271     0.57 
 6                     3.081    -0.011     0.744 
 7                     3.989     0.657     1.429 
 6                     3.482     1.759     2.009 
 6                     2.169     2.171     1.901 
 6                     1.275     1.385     1.142 
 7                    -0.018     1.635     0.957 
 7                     2.096     3.352     2.672 
 6                     3.381     3.536     3.177 
 7                     4.223     2.625     2.812 
 1                     3.416    -0.805     0.299 
 1                    -0.357     2.366     1.259 
 1                    -0.528     1.108     0.488 
 1                     3.535     4.267     3.713 
 1                     4.90473   2.54002   2.96937 
 

 GradGradGradGradGradGradGradGradGradGradGradGradGradGradGradGradGradGrad
 Berny optimization.
 Initialization pass.
 No Z-matrix variables, so optimization will use Cartesian coordinates.
 Trust Radius=3.00D-01 FncErr=1.00D-07 GrdErr=1.00D-07
 Number of steps in this run=     55 maximum allowed number of steps=    100.
 GradGradGradGradGradGradGradGradGradGradGradGradGradGradGradGradGradGrad

 ---------------------------------------------------------------------------------------------------
                            Z-MATRIX (ANGSTROMS AND DEGREES)
   CD    Cent   Atom    N1       Length/X        N2       Alpha/Y        N3        Beta/Z          J
 ---------------------------------------------------------------------------------------------------
      1      1  N        0   1.785000          0.271000          0.570000
      2      2  C        0   3.081000         -0.011000          0.744000
      3      3  N        0   3.989000          0.657000          1.429000
      4      4  C        0   3.482000          1.759000          2.009000
      5      5  C        0   2.169000          2.171000          1.901000
      6      6  C        0   1.275000          1.385000          1.142000
      7      7  N        0  -0.018000          1.635000          0.957000
      8      8  N        0   2.096000          3.352000          2.672000
      9      9  C        0   3.381000          3.536000          3.177000
     10     10  N        0   4.223000          2.625000          2.812000
     11     11  H        0   3.416000         -0.805000          0.299000
     12     12  H        0  -0.357000          2.366000          1.259000
     13     13  H        0  -0.528000          1.108000          0.488000
     14     14  H        0   3.535000          4.267000          3.713000
     15     15  H        0   4.904725          2.540023          2.969371
 ---------------------------------------------------------------------------------------------------
                         Z-Matrix orientation:                         
 ---------------------------------------------------------------------
 Center     Atomic      Atomic             Coordinates (Angstroms)
 Number     Number       Type             X           Y           Z
 ---------------------------------------------------------------------
      1          7           0        1.785000    0.271000    0.570000
      2          6           0        3.081000   -0.011000    0.744000
      3          7           0        3.989000    0.657000    1.429000
      4          6           0        3.482000    1.759000    2.009000
      5          6           0        2.169000    2.171000    1.901000
      6          6           0        1.275000    1.385000    1.142000
      7          7           0       -0.018000    1.635000    0.957000
      8          7           0        2.096000    3.352000    2.672000
      9          6           0        3.381000    3.536000    3.177000
     10          7           0        4.223000    2.625000    2.812000
     11          1           0        3.416000   -0.805000    0.299000
     12          1           0       -0.357000    2.366000    1.259000
     13          1           0       -0.528000    1.108000    0.488000
     14          1           0        3.535000    4.267000    3.713000
     15          1           0        4.904725    2.540023    2.969371
 ---------------------------------------------------------------------
                    Distance matrix (angstroms):
                    1          2          3          4          5
     1  N    0.000000
     2  C    1.337691   0.000000
     3  N    2.396767   1.319058   0.000000
     4  C    2.676691   2.212222   1.344564   0.000000
     5  C    2.351386   2.632777   2.413997   1.380354   0.000000
     6  C    1.352139   2.317079   2.824562   2.400503   1.411777
     7  N    2.293703   3.515464   4.151544   3.656785   2.441598
     8  N    3.742684   3.999647   3.520160   2.213191   1.412279
     9  C    4.472571   4.311693   3.422544   2.128886   2.227183
    10  N    4.063462   3.539673   2.416706   1.394219   2.292368
    11  H    1.972658   0.969890   1.934599   3.082621   3.602498
    12  H    3.074396   4.211318   4.673039   3.958392   2.613592
    13  H    2.461151   3.787160   4.635965   4.337896   3.224957
    14  H    5.376706   5.227080   4.295913   3.032571   3.089096
    15  H    4.542921   3.845253   2.599437   1.885857   2.960032
                    6          7          8          9         10
     6  C    0.000000
     7  N    1.329877   0.000000
     8  N    2.623744   3.218433   0.000000
     9  C    3.633629   4.482790   1.392877   0.000000
    10  N    3.607936   4.733625   2.252167   1.293101   0.000000
    11  H    3.176575   4.263674   4.965297   5.208492   4.327969
    12  H    1.907741   0.860515   2.997661   4.361223   4.843066
    13  H    1.937848   0.870511   4.085434   5.329745   5.502206
    14  H    4.474770   5.210256   1.997906   0.919442   1.995322
    15  H    4.224721   5.394620   2.938822   1.832162   0.704795
                   11         12         13         14         15
    11  H    0.000000
    12  H    5.021192   0.000000
    13  H    4.387531   1.485344   0.000000
    14  H    6.115124   4.978311   6.073539   0.000000
    15  H    4.531706   5.535468   6.141856   2.326280   0.000000
 Stoichiometry    C5H5N5
 Framework group  C1[X(C5H5N5)]
 Deg. of freedom    39
 Full point group                 C1      NOp   1
 Largest Abelian subgroup         C1      NOp   1
 Largest concise Abelian subgroup C1      NOp   1
                         Standard orientation:                         
 ---------------------------------------------------------------------
 Center     Atomic      Atomic             Coordinates (Angstroms)
 Number     Number       Type             X           Y           Z
 ---------------------------------------------------------------------
      1          7           0       -1.914894    0.635505   -0.010325
      2          6           0       -1.166385    1.744155   -0.003538
      3          7           0        0.147893    1.855783    0.007723
      4          6           0        0.761612    0.659457    0.010134
      5          6           0        0.110962   -0.557918    0.015481
      6          6           0       -1.300726   -0.569014    0.004321
      7          7           0       -2.071202   -1.652866   -0.009987
      8          7           0        1.144466   -1.520362    0.005304
      9          6           0        2.326527   -0.783736   -0.009562
     10          7           0        2.146197    0.496726   -0.006895
     11          1           0       -1.642320    2.589137    0.009743
     12          1           0       -1.710928   -2.431353    0.058186
     13          1           0       -2.940008   -1.601915   -0.029229
     14          1           0        3.122915   -1.243163   -0.017610
     15          1           0        2.611185    1.026129   -0.022846
 ---------------------------------------------------------------------
 Rotational constants (GHZ):      2.4956715      1.5111380      0.9412780
 Standard basis: 6-31+G (6D, 7F)
 There are   140 symmetry adapted cartesian basis functions of A   symmetry.
 There are   140 symmetry adapted basis functions of A   symmetry.
   140 basis functions,   280 primitive gaussians,   140 cartesian basis functions
    35 alpha electrons       35 beta electrons
       nuclear repulsion energy       507.3777027664 Hartrees.
 NAtoms=   15 NActive=   15 NUniq=   15 SFac= 1.00D+00 NAtFMM=   60 NAOKFM=F Big=F
 Integral buffers will be    262144 words long.
 Raffenetti 1 integral format.
 Two-electron integral symmetry is turned on.
 One-electron integrals computed using PRISM.
 NBasis=   140 RedAO= T EigKep=  6.94D-06  NBF=   140
 NBsUse=   140 1.00D-06 EigRej= -1.00D+00 NBFU=   140
 ExpMin= 4.38D-02 ExpMax= 4.17D+03 ExpMxC= 6.27D+02 IAcc=2 IRadAn=         4 AccDes= 0.00D+00
 Harris functional with IExCor=  205 and IRadAn=       4 diagonalized for initial guess.
 HarFok:  IExCor=  205 AccDes= 0.00D+00 IRadAn=         4 IDoV= 1 UseB2=F ITyADJ=14
 ICtDFT=  3500011 ScaDFX=  1.000000  1.000000  1.000000  1.000000
 FoFCou: FMM=F IPFlag=           0 FMFlag=      100000 FMFlg1=           0
         NFxFlg=           0 DoJE=T BraDBF=F KetDBF=T FulRan=T
         wScrn=  0.000000 ICntrl=     500 IOpCl=  0 I1Cent=   200000004 NGrid=           0
         NMat0=    1 NMatS0=      1 NMatT0=    0 NMatD0=    1 NMtDS0=    0 NMtDT0=    0
 Petite list used in FoFCou.
 Requested convergence on RMS density matrix=1.00D-08 within 128 cycles.
 Requested convergence on MAX density matrix=1.00D-06.
 Requested convergence on             energy=1.00D-06.
 No special actions if energy rises.
 Initial convergence to 1.0D-05 achieved.  Increase integral accuracy.
 SCF Done:  E(RHF) =  -464.055568957     A.U. after   17 cycles
            NFock= 17  Conv=0.47D-08     -V/T= 1.9952

 **********************************************************************

            Population analysis using the SCF density.

 **********************************************************************

 Orbital symmetries:
       Occupied  (A) (A) (A) (A) (A) (A) (A) (A) (A) (A) (A) (A)
                 (A) (A) (A) (A) (A) (A) (A) (A) (A) (A) (A) (A)
                 (A) (A) (A) (A) (A) (A) (A) (A) (A) (A) (A)
       Virtual   (A) (A) (A) (A) (A) (A) (A) (A) (A) (A) (A) (A)
                 (A) (A) (A) (A) (A) (A) (A) (A) (A) (A) (A) (A)
                 (A) (A) (A) (A) (A) (A) (A) (A) (A) (A) (A) (A)
                 (A) (A) (A) (A) (A) (A) (A) (A) (A) (A) (A) (A)
                 (A) (A) (A) (A) (A) (A) (A) (A) (A) (A) (A) (A)
                 (A) (A) (A) (A) (A) (A) (A) (A) (A) (A) (A) (A)
                 (A) (A) (A) (A) (A) (A) (A) (A) (A) (A) (A) (A)
                 (A) (A) (A) (A) (A) (A) (A) (A) (A) (A) (A) (A)
                 (A) (A) (A) (A) (A) (A) (A) (A) (A)
 The electronic state is 1-A.
 Alpha  occ. eigenvalues --  -15.63849 -15.59381 -15.58535 -15.58064 -15.57576
 Alpha  occ. eigenvalues --  -11.37144 -11.34414 -11.33626 -11.31447 -11.28875
 Alpha  occ. eigenvalues --   -1.42857  -1.34976  -1.29583  -1.23381  -1.19551
 Alpha  occ. eigenvalues --   -1.07085  -0.96726  -0.94627  -0.90311  -0.84778
 Alpha  occ. eigenvalues --   -0.80482  -0.76315  -0.70253  -0.68457  -0.66312
 Alpha  occ. eigenvalues --   -0.64881  -0.62174  -0.58535  -0.51133  -0.49456
 Alpha  occ. eigenvalues --   -0.44431  -0.43198  -0.41262  -0.39069  -0.31575
 Alpha virt. eigenvalues --    0.05634   0.07036   0.08202   0.08668   0.09596
 Alpha virt. eigenvalues --    0.09658   0.10004   0.12101   0.12164   0.13051
 Alpha virt. eigenvalues --    0.13596   0.14217   0.15400   0.15662   0.16685
 Alpha virt. eigenvalues --    0.17227   0.19120   0.19912   0.20606   0.20738
 Alpha virt. eigenvalues --    0.22806   0.24220   0.25573   0.25666   0.26945
 Alpha virt. eigenvalues --    0.27842   0.28490   0.29672   0.30857   0.32005
 Alpha virt. eigenvalues --    0.32018   0.32145   0.32830   0.33463   0.34357
 Alpha virt. eigenvalues --    0.34975   0.35206   0.36703   0.37326   0.37625
 Alpha virt. eigenvalues --    0.39927   0.40447   0.41517   0.42406   0.44247
 Alpha virt. eigenvalues --    0.45111   0.46546   0.47342   0.49953   0.50658
 Alpha virt. eigenvalues --    0.51607   0.54858   0.57168   0.59198   0.62347
 Alpha virt. eigenvalues --    0.63312   0.66498   0.68425   0.83186   0.84873
 Alpha virt. eigenvalues --    0.88188   0.91481   0.94273   0.95071   0.95629
 Alpha virt. eigenvalues --    1.00784   1.03590   1.06331   1.09430   1.10342
 Alpha virt. eigenvalues --    1.16154   1.17339   1.17784   1.18725   1.22007
 Alpha virt. eigenvalues --    1.24911   1.25711   1.26035   1.27491   1.27672
 Alpha virt. eigenvalues --    1.30426   1.32231   1.33746   1.35039   1.38102
 Alpha virt. eigenvalues --    1.39587   1.40560   1.43277   1.45441   1.47716
 Alpha virt. eigenvalues --    1.48894   1.51154   1.58201   1.60123   1.62630
 Alpha virt. eigenvalues --    1.68392   1.72555   1.79438   1.84263   1.89955
 Alpha virt. eigenvalues --    1.98657   2.10003   2.26172   2.29154   2.43124
          Condensed to atoms (all electrons):
               1          2          3          4          5          6
     1  N    7.688348   0.010819   0.069729  -0.481475   1.034270  -0.365217
     2  C    0.010819   6.154221   0.084628  -0.433031  -0.516681   0.106123
     3  N    0.069729   0.084628   7.523159  -0.268544   0.839156  -0.689880
     4  C   -0.481475  -0.433031  -0.268544  13.698903  -6.919683   1.206927
     5  C    1.034270  -0.516681   0.839156  -6.919683  18.978449  -7.633130
     6  C   -0.365217   0.106123  -0.689880   1.206927  -7.633130  13.211180
     7  N   -0.401599   0.029817  -0.032236   0.064212  -0.688076   0.483223
     8  N   -0.011200  -0.008080  -0.004196   0.257067   0.054603  -0.263303
     9  C    0.041605  -0.219776   0.139680  -1.486273   1.035769  -0.730096
    10  N   -0.031016   0.056988  -0.204870   0.281875  -0.342790   0.221495
    11  H   -0.124114   0.502002  -0.127380   0.054522  -0.073311   0.057848
    12  H    0.013445   0.004132   0.000044  -0.020840  -0.029182   0.025165
    13  H    0.002785  -0.004354   0.000414   0.009602   0.110423  -0.097042
    14  H    0.000175   0.000191   0.002487   0.036789  -0.000287  -0.017051
    15  H    0.000192   0.005399  -0.021136  -0.054267   0.070824  -0.010432
               7          8          9         10         11         12
     1  N   -0.401599  -0.011200   0.041605  -0.031016  -0.124114   0.013445
     2  C    0.029817  -0.008080  -0.219776   0.056988   0.502002   0.004132
     3  N   -0.032236  -0.004196   0.139680  -0.204870  -0.127380   0.000044
     4  C    0.064212   0.257067  -1.486273   0.281875   0.054522  -0.020840
     5  C   -0.688076   0.054603   1.035769  -0.342790  -0.073311  -0.029182
     6  C    0.483223  -0.263303  -0.730096   0.221495   0.057848   0.025165
     7  N    7.838155   0.016212  -0.014940   0.006168   0.003131   0.324213
     8  N    0.016212   7.081082   0.385997  -0.044571  -0.000196  -0.006601
     9  C   -0.014940   0.385997   6.668206  -0.592334  -0.002238  -0.001490
    10  N    0.006168  -0.044571  -0.592334   7.810879   0.003353   0.000038
    11  H    0.003131  -0.000196  -0.002238   0.003353   0.511386   0.000003
    12  H    0.324213  -0.006601  -0.001490   0.000038   0.000003   0.303693
    13  H    0.288937   0.001213   0.001047   0.000075  -0.000043  -0.017345
    14  H    0.000017  -0.037418   0.459327  -0.130583   0.000000   0.000003
    15  H    0.000014  -0.000282  -0.044460   0.455443  -0.000003   0.000001
              13         14         15
     1  N    0.002785   0.000175   0.000192
     2  C   -0.004354   0.000191   0.005399
     3  N    0.000414   0.002487  -0.021136
     4  C    0.009602   0.036789  -0.054267
     5  C    0.110423  -0.000287   0.070824
     6  C   -0.097042  -0.017051  -0.010432
     7  N    0.288937   0.000017   0.000014
     8  N    0.001213  -0.037418  -0.000282
     9  C    0.001047   0.459327  -0.044460
    10  N    0.000075  -0.130583   0.455443
    11  H   -0.000043   0.000000  -0.000003
    12  H   -0.017345   0.000003   0.000001
    13  H    0.281335   0.000000   0.000000
    14  H    0.000000   0.474401   0.000808
    15  H    0.000000   0.000808   0.461866
 Mulliken charges:
               1
     1  N   -0.446747
     2  C    0.227603
     3  N   -0.311053
     4  C    0.054218
     5  C    0.079646
     6  C    0.494190
     7  N   -0.917249
     8  N   -0.420327
     9  C    0.359977
    10  N   -0.490150
    11  H    0.195040
    12  H    0.404721
    13  H    0.422954
    14  H    0.211142
    15  H    0.136034
 Sum of Mulliken charges =   0.00000
 Mulliken charges with hydrogens summed into heavy atoms:
               1
     1  N   -0.446747
     2  C    0.422643
     3  N   -0.311053
     4  C    0.054218
     5  C    0.079646
     6  C    0.494190
     7  N   -0.089574
     8  N   -0.420327
     9  C    0.571119
    10  N   -0.354116
 Electronic spatial extent (au):  <R**2>=           1169.1966
 Charge=              0.0000 electrons
 Dipole moment (field-independent basis, Debye):
    X=              2.0142    Y=             -0.8859    Z=              0.0685  Tot=              2.2015
 Quadrupole moment (field-independent basis, Debye-Ang):
   XX=            -45.1161   YY=            -61.8804   ZZ=            -60.3929
   XY=              6.6201   XZ=             -0.3972   YZ=             -0.3334
 Traceless Quadrupole moment (field-independent basis, Debye-Ang):
   XX=             10.6804   YY=             -6.0839   ZZ=             -4.5964
   XY=              6.6201   XZ=             -0.3972   YZ=             -0.3334
 Octapole moment (field-independent basis, Debye-Ang**2):
  XXX=             44.8331  YYY=             -9.4384  ZZZ=             -0.0214  XYY=            -25.1601
  XXY=            -14.0065  XXZ=             -0.3325  XZZ=              1.0832  YZZ=              1.1587
  YYZ=              0.7153  XYZ=              0.3685
 Hexadecapole moment (field-independent basis, Debye-Ang**3):
 XXXX=           -743.2901 YYYY=           -598.2508 ZZZZ=            -63.2840 XXXY=             64.8653
 XXXZ=             -1.4255 YYYX=             30.5073 YYYZ=             -2.3058 ZZZX=             -0.4078
 ZZZY=             -0.2711 XXYY=           -197.5307 XXZZ=           -171.4995 YYZZ=           -116.5794
 XXYZ=             -0.4071 YYXZ=             -1.9247 ZZXY=              3.1652
 N-N= 5.073777027664D+02 E-N=-2.100476591081D+03  KE= 4.662963867728D+02
 Calling FoFJK, ICntrl=      2127 FMM=F ISym2X=0 I1Cent= 0 IOpClX= 0 NMat=1 NMatS=1 NMatT=0.
 ***** Axes restored to original set *****
 -------------------------------------------------------------------
 Center     Atomic                   Forces (Hartrees/Bohr)
 Number     Number              X              Y              Z
 -------------------------------------------------------------------
      1        7          -0.002708641    0.018863499    0.010580000
      2        6          -0.023010857    0.063944742    0.034491768
      3        7          -0.009619335    0.013302169    0.006715216
      4        6           0.030852712   -0.035788147   -0.013897242
      5        6           0.028433959    0.031923947    0.029610624
      6        6           0.024090075   -0.023057711   -0.004828246
      7        7           0.172347512   -0.042475190    0.030751211
      8        7           0.053238774    0.008653332    0.021654296
      9        6          -0.158886988   -0.090538831   -0.108478172
     10        7          -0.785231507    0.037951530   -0.221003377
     11        1           0.030097835   -0.086400094   -0.048211057
     12        1          -0.082425000    0.176210591    0.075549136
     13        1          -0.100329157   -0.118062352   -0.100799111
     14        1           0.038052188    0.141252313    0.106283339
     15        1           0.785098430   -0.095779798    0.181581615
 -------------------------------------------------------------------
 Cartesian Forces:  Max     0.785231507 RMS     0.185017096

 GradGradGradGradGradGradGradGradGradGradGradGradGradGradGradGradGradGrad
 Berny optimization.
 Search for a local minimum.
 Step number   1 out of a maximum of   55
 All quantities printed in internal units (Hartrees-Bohrs-Radians)
 Second derivative matrix not updated -- first step.
 ITU=  0
     Eigenvalues ---    0.00771   0.01223   0.01617   0.02026   0.03318
     Eigenvalues ---    0.03743   0.04937   0.07202   0.08450   0.10260
     Eigenvalues ---    0.11287   0.12646   0.13566   0.14368   0.19567
     Eigenvalues ---    0.19978   0.23738   0.24027   0.30357   0.30431
     Eigenvalues ---    0.36680   0.39973   0.43989   0.49379   0.55045
     Eigenvalues ---    0.63628   0.85236   0.96425   1.12499   1.23543
     Eigenvalues ---    1.38076   1.48243   1.57687   1.74008   1.81978
     Eigenvalues ---    1.99329   2.05342   2.10169   4.02934
 RFO step:  Lambda=-4.47793769D-01 EMin= 7.71373481D-03
 Linear search not attempted -- first point.
 Maximum step size (   0.300) exceeded in Quadratic search.
    -- Step size scaled by   0.708
 TrRot= -0.000215 -0.006695 -0.004005  2.666646  0.000641 -2.665616
 Variable       Old X    -DE/DX   Delta X   Delta X   Delta X     New X
                                 (Linear)    (Quad)   (Total)
    X1        3.37316  -0.00271   0.00000   0.00490   0.00352   3.37668
    Y1        0.51212   0.01886   0.00000   0.01668   0.01378   0.52589
    Z1        1.07714   0.01058   0.00000   0.01102   0.00878   1.08593
    X2        5.82225  -0.02301   0.00000  -0.00177  -0.00278   5.81946
    Y2       -0.02079   0.06394   0.00000   0.01127   0.01098  -0.00980
    Z2        1.40596   0.03449   0.00000   0.00490   0.00422   1.41017
    X3        7.53812  -0.00962   0.00000   0.00431   0.00128   7.53939
    Y3        1.24155   0.01330   0.00000  -0.00587  -0.00401   1.23754
    Z3        2.70042   0.00672   0.00000  -0.00125  -0.00132   2.69910
    X4        6.58003   0.03085   0.00000   0.00505  -0.00072   6.57931
    Y4        3.32403  -0.03579   0.00000  -0.03270  -0.03151   3.29251
    Z4        3.79646  -0.01390   0.00000  -0.01942  -0.02064   3.77582
    X5        4.09882   0.02843   0.00000   0.02890   0.02239   4.12120
    Y5        4.10260   0.03192   0.00000   0.01519   0.01381   4.11640
    Z5        3.59237   0.02961   0.00000   0.01934   0.01647   3.60884
    X6        2.40940   0.02409   0.00000   0.03476   0.03061   2.44001
    Y6        2.61727  -0.02306   0.00000   0.00142  -0.00212   2.61515
    Z6        2.15807  -0.00483   0.00000   0.01378   0.01040   2.16846
    X7       -0.03402   0.17235   0.00000   0.04388   0.03944   0.00542
    Y7        3.08970  -0.04248   0.00000   0.00550  -0.00065   3.08905
    Z7        1.80847   0.03075   0.00000   0.01629   0.01138   1.81985
    X8        3.96087   0.05324   0.00000   0.00733  -0.00231   3.95855
    Y8        6.33436   0.00865   0.00000   0.01127   0.01015   6.34451
    Z8        5.04935   0.02165   0.00000   0.00978   0.00617   5.05552
    X9        6.38916  -0.15889   0.00000  -0.08474  -0.09524   6.29393
    Y9        6.68207  -0.09054   0.00000  -0.00678  -0.00524   6.67683
    Z9        6.00366  -0.10848   0.00000  -0.03012  -0.03250   5.97116
   X10        7.98031  -0.78523   0.00000  -0.09562  -0.10393   7.87639
   Y10        4.96053   0.03795   0.00000  -0.02646  -0.02350   4.93703
   Z10        5.31391  -0.22100   0.00000  -0.04740  -0.04837   5.26554
   X11        6.45530   0.03010   0.00000   0.01402   0.01512   6.47042
   Y11       -1.52123  -0.08640   0.00000  -0.05842  -0.05830  -1.57953
   Z11        0.56503  -0.04821   0.00000  -0.03296  -0.03282   0.53221
   X12       -0.67463  -0.08242   0.00000  -0.03094  -0.03724  -0.71187
   Y12        4.47109   0.17621   0.00000   0.09689   0.09017   4.56127
   Z12        2.37917   0.07555   0.00000   0.04856   0.04281   2.42197
   X13       -0.99778  -0.10033   0.00000  -0.03088  -0.03369  -1.03146
   Y13        2.09382  -0.11806   0.00000  -0.05967  -0.06717   2.02665
   Z13        0.92219  -0.10080   0.00000  -0.04506  -0.05025   0.87193
   X14        6.68018   0.03805   0.00000   0.01838   0.00575   6.68593
   Y14        8.06346   0.14125   0.00000   0.07429   0.07657   8.14003
   Z14        7.01655   0.10628   0.00000   0.05566   0.05308   7.06963
   X15        9.26859   0.78510   0.00000   0.16616   0.15780   9.42639
   Y15        4.79995  -0.09578   0.00000  -0.02763  -0.02295   4.77700
   Z15        5.61130   0.18158   0.00000   0.03260   0.03257   5.64387
         Item               Value     Threshold  Converged?
 Maximum Force            0.785232     0.000450     NO 
 RMS     Force            0.185017     0.000300     NO 
 Maximum Displacement     0.157802     0.001800     NO 
 RMS     Displacement     0.044468     0.001200     NO 
 Predicted change in Energy=-2.249463D-01
 GradGradGradGradGradGradGradGradGradGradGradGradGradGradGradGradGradGrad

                          Input orientation:                          
 ---------------------------------------------------------------------
 Center     Atomic      Atomic             Coordinates (Angstroms)
 Number     Number       Type             X           Y           Z
 ---------------------------------------------------------------------
      1          7           0        1.786863    0.278291    0.574648
      2          6           0        3.079528   -0.005188    0.746231
      3          7           0        3.989675    0.654877    1.428302
      4          6           0        3.481621    1.742324    1.998080
      5          6           0        2.180847    2.178305    1.909718
      6          6           0        1.291200    1.383878    1.147502
      7          7           0        0.002869    1.634657    0.963023
      8          7           0        2.094777    3.357369    2.675267
      9          6           0        3.330602    3.533228    3.159804
     10          7           0        4.168005    2.612566    2.786406
     11          1           0        3.424000   -0.835851    0.281634
     12          1           0       -0.376707    2.413718    1.281653
     13          1           0       -0.545826    1.072457    0.461407
     14          1           0        3.538043    4.307517    3.741090
     15          1           0        4.988231    2.527877    2.986607
 ---------------------------------------------------------------------
                    Distance matrix (angstroms):
                    1          2          3          4          5
     1  N    0.000000
     2  C    1.334460   0.000000
     3  N    2.392264   1.315019   0.000000
     4  C    2.653631   2.186917   1.328649   0.000000
     5  C    2.355354   2.632295   2.413391   1.374737   0.000000
     6  C    1.340211   2.299704   2.809281   2.376954   1.415472
     7  N    2.274466   3.493125   4.131716   3.631067   2.436262
     8  N    3.740071   3.999713   3.528317   2.233895   1.408426
     9  C    4.434048   4.290544   3.423066   2.140034   2.172664
    10  N    4.001319   3.492812   2.389309   1.360111   2.214941
    11  H    2.001847   1.012182   1.963952   3.097821   3.644342
    12  H    3.121047   4.252451   4.709599   3.981298   2.644044
    13  H    2.466771   3.792840   4.656182   4.362386   3.279520
    14  H    5.415500   5.270563   4.346808   3.101851   3.119206
    15  H    4.596405   3.883150   2.633165   1.965745   3.027093
                    6          7          8          9         10
     6  C    0.000000
     7  N    1.325412   0.000000
     8  N    2.621921   3.205556   0.000000
     9  C    3.581652   4.416359   1.339017   0.000000
    10  N    3.531528   4.650741   2.205755   1.299342   0.000000
    11  H    3.197775   4.274558   5.007934   5.232728   4.326547
    12  H    1.964810   0.923330   2.990129   4.304056   4.791475
    13  H    1.985541   0.932070   4.134584   5.325733   5.477021
    14  H    4.508067   5.230610   2.030216   0.990175   2.044781
    15  H    4.284750   5.454041   3.026064   1.946397   0.848542
                   11         12         13         14         15
    11  H    0.000000
    12  H    5.099521   0.000000
    13  H    4.408342   1.581261   0.000000
    14  H    6.199603   4.996055   6.156291   0.000000
    15  H    4.591118   5.630494   6.254652   2.416487   0.000000
 Stoichiometry    C5H5N5
 Framework group  C1[X(C5H5N5)]
 Deg. of freedom    39
 Full point group                 C1      NOp   1
 Largest Abelian subgroup         C1      NOp   1
 Largest concise Abelian subgroup C1      NOp   1
                         Standard orientation:                         
 ---------------------------------------------------------------------
 Center     Atomic      Atomic             Coordinates (Angstroms)
 Number     Number       Type             X           Y           Z
 ---------------------------------------------------------------------
      1          7           0       -1.914675    0.597175   -0.009580
      2          6           0       -1.191808    1.718870   -0.002629
      3          7           0        0.115268    1.862870    0.007010
      4          6           0        0.737302    0.688828    0.009682
      5          6           0        0.142082   -0.550360    0.014978
      6          6           0       -1.273043   -0.579392    0.003173
      7          7           0       -2.018975   -1.674898   -0.009826
      8          7           0        1.181793   -1.500394    0.005078
      9          6           0        2.303547   -0.769346   -0.009153
     10          7           0        2.085727    0.511604   -0.005987
     11          1           0       -1.709748    2.588418    0.009118
     12          1           0       -1.632086   -2.510246    0.061238
     13          1           0       -2.950228   -1.641611   -0.030213
     14          1           0        3.190818   -1.208787   -0.018561
     15          1           0        2.648807    1.146121   -0.024754
 ---------------------------------------------------------------------
 Rotational constants (GHZ):      2.4959791      1.5414250      0.9529837
 Standard basis: 6-31+G (6D, 7F)
 There are   140 symmetry adapted cartesian basis functions of A   symmetry.
 There are   140 symmetry adapted basis functions of A   symmetry.
   140 basis functions,   280 primitive gaussians,   140 cartesian basis functions
    35 alpha electrons       35 beta electrons
       nuclear repulsion energy       508.3712029945 Hartrees.
 NAtoms=   15 NActive=   15 NUniq=   15 SFac= 1.00D+00 NAtFMM=   60 NAOKFM=F Big=F
 Integral buffers will be    262144 words long.
 Raffenetti 1 integral format.
 Two-electron integral symmetry is turned on.
 One-electron integrals computed using PRISM.
 NBasis=   140 RedAO= T EigKep=  7.00D-06  NBF=   140
 NBsUse=   140 1.00D-06 EigRej= -1.00D+00 NBFU=   140
 Initial guess from the checkpoint file:  "C:\G09W\Scratch\gxx.chk"
 B after Tr=     0.000000    0.000000    0.000000
         Rot=    0.999963   -0.000005   -0.000027   -0.008549 Ang=  -0.98 deg.
 ExpMin= 4.38D-02 ExpMax= 4.17D+03 ExpMxC= 6.27D+02 IAcc=2 IRadAn=         4 AccDes= 0.00D+00
 Harris functional with IExCor=  205 and IRadAn=       4 diagonalized for initial guess.
 HarFok:  IExCor=  205 AccDes= 0.00D+00 IRadAn=         4 IDoV= 1 UseB2=F ITyADJ=14
 ICtDFT=  3500011 ScaDFX=  1.000000  1.000000  1.000000  1.000000
 FoFCou: FMM=F IPFlag=           0 FMFlag=      100000 FMFlg1=           0
         NFxFlg=           0 DoJE=T BraDBF=F KetDBF=T FulRan=T
         wScrn=  0.000000 ICntrl=     500 IOpCl=  0 I1Cent=   200000004 NGrid=           0
         NMat0=    1 NMatS0=      1 NMatT0=    0 NMatD0=    1 NMtDS0=    0 NMtDT0=    0
 Petite list used in FoFCou.
 Requested convergence on RMS density matrix=1.00D-08 within 128 cycles.
 Requested convergence on MAX density matrix=1.00D-06.
 Requested convergence on             energy=1.00D-06.
 No special actions if energy rises.
 Initial convergence to 1.0D-05 achieved.  Increase integral accuracy.
 SCF Done:  E(RHF) =  -464.253863818     A.U. after   16 cycles
            NFock= 16  Conv=0.75D-08     -V/T= 1.9970
 Calling FoFJK, ICntrl=      2127 FMM=F ISym2X=0 I1Cent= 0 IOpClX= 0 NMat=1 NMatS=1 NMatT=0.
 ***** Axes restored to original set *****
 -------------------------------------------------------------------
 Center     Atomic                   Forces (Hartrees/Bohr)
 Number     Number              X              Y              Z
 -------------------------------------------------------------------
      1        7           0.003397718    0.009709235    0.006586887
      2        6          -0.004800532    0.014703522    0.007002227
      3        7          -0.004114254    0.001743395    0.000388850
      4        6           0.011450968   -0.014292295   -0.005583161
      5        6           0.004995483    0.013996390    0.010969655
      6        6           0.016467977   -0.007395490    0.002166394
      7        7           0.054267180   -0.008025692    0.012039892
      8        7           0.020016076   -0.000541806    0.005714925
      9        6          -0.102970197   -0.003489402   -0.033499706
     10        7          -0.190988195   -0.020536031   -0.073984521
     11        1           0.012702597   -0.044637579   -0.024993750
     12        1          -0.034589662    0.074308909    0.033489529
     13        1          -0.035660326   -0.050403825   -0.041003321
     14        1           0.020457118    0.056816061    0.044355077
     15        1           0.229368050   -0.021955392    0.056351023
 -------------------------------------------------------------------
 Cartesian Forces:  Max     0.229368050 RMS     0.055213920

 GradGradGradGradGradGradGradGradGradGradGradGradGradGradGradGradGradGrad
 Berny optimization.
 Search for a local minimum.
 Step number   2 out of a maximum of   55
 All quantities printed in internal units (Hartrees-Bohrs-Radians)
 Update second derivatives using D2CorN and points    1    2
 DE= -1.98D-01 DEPred=-2.25D-01 R= 8.82D-01
 TightC=F SS=  1.41D+00  RLast= 2.98D-01 DXNew= 5.0454D-01 8.9490D-01
 Trust test= 8.82D-01 RLast= 2.98D-01 DXMaxT set to 5.05D-01
 ITU=  1  0
     Eigenvalues ---    0.00771   0.01222   0.01623   0.02026   0.03323
     Eigenvalues ---    0.03758   0.04949   0.07198   0.08491   0.10277
     Eigenvalues ---    0.11280   0.12671   0.13856   0.14455   0.19555
     Eigenvalues ---    0.19973   0.23790   0.24037   0.30429   0.30548
     Eigenvalues ---    0.37366   0.39939   0.44012   0.49365   0.55112
     Eigenvalues ---    0.64207   0.87224   0.96630   1.14004   1.23974
     Eigenvalues ---    1.39231   1.48154   1.57568   1.74035   1.82281
     Eigenvalues ---    1.99009   2.06682   2.10333   4.26857
 RFO step:  Lambda=-2.43269434D-01 EMin= 7.70886189D-03
 Quartic linear search produced a step of  1.34489.
 Maximum step size (   0.505) exceeded in Quadratic search.
    -- Step size scaled by   0.835
 TrRot=  0.001238  0.004563 -0.000831  1.651958 -0.000390 -1.652703
 Variable       Old X    -DE/DX   Delta X   Delta X   Delta X     New X
                                 (Linear)    (Quad)   (Total)
    X1        3.37668   0.00340   0.00473   0.04969   0.05613   3.43281
    Y1        0.52589   0.00971   0.01853   0.03628   0.05638   0.58227
    Z1        1.08593   0.00659   0.01181   0.03239   0.04348   1.12941
    X2        5.81946  -0.00480  -0.00374   0.04834   0.04579   5.86525
    Y2       -0.00980   0.01470   0.01477  -0.12423  -0.10979  -0.11959
    Z2        1.41017   0.00700   0.00567  -0.08000  -0.07539   1.33478
    X3        7.53939  -0.00411   0.00172   0.01896   0.02284   7.56224
    Y3        1.23754   0.00174  -0.00540  -0.08862  -0.09612   1.14142
    Z3        2.69910   0.00039  -0.00178  -0.04967  -0.05207   2.64702
    X4        6.57931   0.01145  -0.00096   0.03470   0.03747   6.61678
    Y4        3.29251  -0.01429  -0.04238  -0.06285  -0.10704   3.18548
    Z4        3.77582  -0.00558  -0.02775  -0.02573  -0.05329   3.72254
    X5        4.12120   0.00500   0.03011   0.03318   0.06773   4.18894
    Y5        4.11640   0.01400   0.01857   0.01924   0.03783   4.15423
    Z5        3.60884   0.01097   0.02216   0.03195   0.05475   3.66359
    X6        2.44001   0.01647   0.04117   0.03677   0.08123   2.52124
    Y6        2.61515  -0.00740  -0.00285   0.04379   0.04276   2.65791
    Z6        2.16846   0.00217   0.01398   0.05213   0.06624   2.23470
    X7        0.00542   0.05427   0.05304  -0.05016   0.00654   0.01196
    Y7        3.08905  -0.00803  -0.00087   0.08041   0.08337   3.17243
    Z7        1.81985   0.01204   0.01531   0.02419   0.03990   1.85975
    X8        3.95855   0.02002  -0.00311  -0.09261  -0.08957   3.86899
    Y8        6.34451  -0.00054   0.01364   0.02549   0.03886   6.38336
    Z8        5.05552   0.00571   0.00830  -0.00932   0.00051   5.05603
    X9        6.29393  -0.10297  -0.12809  -0.14410  -0.26572   6.02820
    Y9        6.67683  -0.00349  -0.00705   0.09584   0.08656   6.76340
    Z9        5.97116  -0.03350  -0.04370   0.01624  -0.02586   5.94530
   X10        7.87639  -0.19099  -0.13977   0.10150  -0.03323   7.84315
   Y10        4.93703  -0.02054  -0.03160  -0.02994  -0.06484   4.87219
   Z10        5.26554  -0.07398  -0.06505   0.01023  -0.05400   5.21154
   X11        6.47042   0.01270   0.02033   0.01092   0.03111   6.50153
   Y11       -1.57953  -0.04464  -0.07841  -0.21500  -0.29383  -1.87336
   Z11        0.53221  -0.02499  -0.04414  -0.12474  -0.17064   0.36157
   X12       -0.71187  -0.03459  -0.05008  -0.08389  -0.12906  -0.84094
   Y12        4.56127   0.07431   0.12127   0.14045   0.26592   4.82719
   Z12        2.42197   0.03349   0.05757   0.08292   0.14155   2.56353
   X13       -1.03146  -0.03566  -0.04530   0.04219  -0.00048  -1.03194
   Y13        2.02665  -0.05040  -0.09033  -0.08921  -0.17451   1.85214
   Z13        0.87193  -0.04100  -0.06758  -0.04583  -0.11350   0.75844
   X14        6.68593   0.02046   0.00773  -0.06486  -0.04941   6.63652
   Y14        8.14003   0.05682   0.10297   0.14890   0.24869   8.38872
   Z14        7.06963   0.04436   0.07139   0.07712   0.15072   7.22036
   X15        9.42639   0.22937   0.21223   0.00145   0.21865   9.64504
   Y15        4.77700  -0.02196  -0.03087   0.02145  -0.01425   4.76274
   Z15        5.64387   0.05635   0.04381   0.00308   0.04760   5.69147
         Item               Value     Threshold  Converged?
 Maximum Force            0.229368     0.000450     NO 
 RMS     Force            0.055214     0.000300     NO 
 Maximum Displacement     0.293826     0.001800     NO 
 RMS     Displacement     0.114272     0.001200     NO 
 Predicted change in Energy=-5.126767D-02
 GradGradGradGradGradGradGradGradGradGradGradGradGradGradGradGradGradGrad

                          Input orientation:                          
 ---------------------------------------------------------------------
 Center     Atomic      Atomic             Coordinates (Angstroms)
 Number     Number       Type             X           Y           Z
 ---------------------------------------------------------------------
      1          7           0        1.816567    0.308124    0.597659
      2          6           0        3.103757   -0.063286    0.706336
      3          7           0        4.001763    0.604013    1.400745
      4          6           0        3.501448    1.685682    1.969882
      5          6           0        2.216690    2.198323    1.938691
      6          6           0        1.334183    1.406504    1.182552
      7          7           0        0.006328    1.678777    0.984137
      8          7           0        2.047380    3.377931    2.675536
      9          6           0        3.189987    3.579036    3.146118
     10          7           0        4.150418    2.578254    2.757828
     11          1           0        3.440462   -0.991337    0.191336
     12          1           0       -0.445005    2.554439    1.356560
     13          1           0       -0.546080    0.980111    0.401347
     14          1           0        3.511894    4.439117    3.820848
     15          1           0        5.103934    2.520335    3.011796
 ---------------------------------------------------------------------
                    Distance matrix (angstroms):
                    1          2          3          4          5
     1  N    0.000000
     2  C    1.344104   0.000000
     3  N    2.346824   1.316779   0.000000
     4  C    2.572837   2.193991   1.320697   0.000000
     5  C    2.351875   2.724052   2.453100   1.383610   0.000000
     6  C    1.334628   2.349139   2.794205   2.322685   1.406250
     7  N    2.303263   3.564551   4.158387   3.631474   2.463088
     8  N    3.714104   4.103127   3.624821   2.340079   1.401100
     9  C    4.368042   4.384801   3.543454   2.250628   2.076429
    10  N    3.907260   3.504547   2.400291   1.355989   2.134160
    11  H    2.119135   1.113497   2.079152   3.214557   3.837290
    12  H    3.276671   4.457464   4.855910   4.087223   2.747784
    13  H    2.464184   3.808281   4.671523   4.397796   3.388268
    14  H    5.507103   5.489844   4.561238   3.317768   3.200192
    15  H    4.639906   3.998869   2.735426   2.085712   3.097003
                    6          7          8          9         10
     6  C    0.000000
     7  N    1.369927   0.000000
     8  N    2.573747   3.148627   0.000000
     9  C    3.466914   4.291949   1.251975   0.000000
    10  N    3.433026   4.596577   2.251450   1.440404   0.000000
    11  H    3.341939   4.421687   5.215595   5.448099   4.453414
    12  H    2.124511   1.053179   2.937655   4.179172   4.804376
    13  H    2.080260   1.064393   4.200894   5.314731   5.492190
    14  H    4.571626   5.287286   2.140714   1.139572   2.236188
    15  H    4.335640   5.550244   3.192345   2.191366   0.988457
                   11         12         13         14         15
    11  H    0.000000
    12  H    5.387683   0.000000
    13  H    4.452328   1.844222   0.000000
    14  H    6.532097   5.028098   6.334418   0.000000
    15  H    4.801456   5.790656   6.411661   2.621236   0.000000
 Stoichiometry    C5H5N5
 Framework group  C1[X(C5H5N5)]
 Deg. of freedom    39
 Full point group                 C1      NOp   1
 Largest Abelian subgroup         C1      NOp   1
 Largest concise Abelian subgroup C1      NOp   1
                         Standard orientation:                         
 ---------------------------------------------------------------------
 Center     Atomic      Atomic             Coordinates (Angstroms)
 Number     Number       Type             X           Y           Z
 ---------------------------------------------------------------------
      1          7           0       -1.900104    0.467301   -0.006979
      2          6           0       -1.348756    1.693077    0.003282
      3          7           0       -0.050195    1.911352    0.004754
      4          6           0        0.652021    0.792814    0.006772
      5          6           0        0.231901   -0.525468    0.009861
      6          6           0       -1.168825   -0.649148   -0.004651
      7          7           0       -1.853865   -1.835496   -0.004591
      8          7           0        1.272690   -1.463452    0.004730
      9          6           0        2.296808   -0.743368   -0.005403
     10          7           0        2.002072    0.666558   -0.004528
     11          1           0       -2.017823    2.583145    0.001825
     12          1           0       -1.360836   -2.764035    0.058049
     13          1           0       -2.916278   -1.777445   -0.033604
     14          1           0        3.381114   -1.093727   -0.017806
     15          1           0        2.640755    1.420778   -0.021339
 ---------------------------------------------------------------------
 Rotational constants (GHZ):      2.3479006      1.5890474      0.9477035
 Standard basis: 6-31+G (6D, 7F)
 There are   140 symmetry adapted cartesian basis functions of A   symmetry.
 There are   140 symmetry adapted basis functions of A   symmetry.
   140 basis functions,   280 primitive gaussians,   140 cartesian basis functions
    35 alpha electrons       35 beta electrons
       nuclear repulsion energy       503.1364653273 Hartrees.
 NAtoms=   15 NActive=   15 NUniq=   15 SFac= 1.00D+00 NAtFMM=   60 NAOKFM=F Big=F
 Integral buffers will be    262144 words long.
 Raffenetti 1 integral format.
 Two-electron integral symmetry is turned on.
 One-electron integrals computed using PRISM.
 NBasis=   140 RedAO= T EigKep=  7.50D-06  NBF=   140
 NBsUse=   140 1.00D-06 EigRej= -1.00D+00 NBFU=   140
 Initial guess from the checkpoint file:  "C:\G09W\Scratch\gxx.chk"
 B after Tr=     0.000000    0.000000    0.000000
         Rot=    0.999425    0.000000   -0.000014   -0.033921 Ang=   3.89 deg.
 ExpMin= 4.38D-02 ExpMax= 4.17D+03 ExpMxC= 6.27D+02 IAcc=2 IRadAn=         4 AccDes= 0.00D+00
 Harris functional with IExCor=  205 and IRadAn=       4 diagonalized for initial guess.
 HarFok:  IExCor=  205 AccDes= 0.00D+00 IRadAn=         4 IDoV= 1 UseB2=F ITyADJ=14
 ICtDFT=  3500011 ScaDFX=  1.000000  1.000000  1.000000  1.000000
 FoFCou: FMM=F IPFlag=           0 FMFlag=      100000 FMFlg1=           0
         NFxFlg=           0 DoJE=T BraDBF=F KetDBF=T FulRan=T
         wScrn=  0.000000 ICntrl=     500 IOpCl=  0 I1Cent=   200000004 NGrid=           0
         NMat0=    1 NMatS0=      1 NMatT0=    0 NMatD0=    1 NMtDS0=    0 NMtDT0=    0
 Petite list used in FoFCou.
 Requested convergence on RMS density matrix=1.00D-08 within 128 cycles.
 Requested convergence on MAX density matrix=1.00D-06.
 Requested convergence on             energy=1.00D-06.
 No special actions if energy rises.
 Initial convergence to 1.0D-05 achieved.  Increase integral accuracy.
 SCF Done:  E(RHF) =  -464.284656630     A.U. after   17 cycles
            NFock= 17  Conv=0.28D-08     -V/T= 2.0001
 Calling FoFJK, ICntrl=      2127 FMM=F ISym2X=0 I1Cent= 0 IOpClX= 0 NMat=1 NMatS=1 NMatT=0.
 ***** Axes restored to original set *****
 -------------------------------------------------------------------
 Center     Atomic                   Forces (Hartrees/Bohr)
 Number     Number              X              Y              Z
 -------------------------------------------------------------------
      1        7           0.003937847   -0.018422314   -0.011141554
      2        6          -0.009101600   -0.016512038   -0.011145869
      3        7           0.007163782   -0.008128870   -0.004261583
      4        6           0.000706914    0.040671472    0.027861779
      5        6          -0.036469412   -0.034179868   -0.032270388
      6        6          -0.021959994    0.012403194   -0.001307574
      7        7          -0.027962538    0.000698029   -0.008986046
      8        7          -0.027534307   -0.028176975   -0.026631069
      9        6           0.095572328    0.030489798    0.048612923
     10        7          -0.011026395    0.030903366    0.017277137
     11        1          -0.013540599    0.026358470    0.013256047
     12        1           0.022495656   -0.044803520   -0.018016715
     13        1           0.028991935    0.040995690    0.032552807
     14        1          -0.014021566   -0.035631832   -0.028434755
     15        1           0.002747949    0.003335399    0.002634862
 -------------------------------------------------------------------
 Cartesian Forces:  Max     0.095572328 RMS     0.027649490

 GradGradGradGradGradGradGradGradGradGradGradGradGradGradGradGradGradGrad
 Berny optimization.
 Search for a local minimum.
 Step number   3 out of a maximum of   55
 All quantities printed in internal units (Hartrees-Bohrs-Radians)
 Update second derivatives using D2CorN and points    3
 DE= -3.08D-02 DEPred=-5.13D-02 R= 6.01D-01
 TightC=F SS=  1.41D+00  RLast= 7.67D-01 DXNew= 8.4853D-01 2.2997D+00
 Trust test= 6.01D-01 RLast= 7.67D-01 DXMaxT set to 8.49D-01
 ITU=  1  1  0
     Eigenvalues ---    0.00769   0.01221   0.01624   0.02030   0.03341
     Eigenvalues ---    0.03801   0.04945   0.07211   0.08512   0.10311
     Eigenvalues ---    0.11284   0.12701   0.13847   0.14546   0.19563
     Eigenvalues ---    0.19920   0.23826   0.24046   0.30446   0.30556
     Eigenvalues ---    0.37351   0.39940   0.43979   0.49363   0.55054
     Eigenvalues ---    0.64238   0.87291   0.96617   1.14042   1.24029
     Eigenvalues ---    1.39204   1.48138   1.57580   1.74026   1.82322
     Eigenvalues ---    1.98889   2.06680   2.10440   4.27116
 RFO step:  Lambda=-1.39191113D-02 EMin= 7.69189921D-03
 Quartic linear search produced a step of -0.40355.
 TrRot=  0.001467 -0.011543 -0.007686 -0.221078 -0.000682  0.221858
 Variable       Old X    -DE/DX   Delta X   Delta X   Delta X     New X
                                 (Linear)    (Quad)   (Total)
    X1        3.43281   0.00394  -0.02265  -0.03079  -0.05309   3.37972
    Y1        0.58227  -0.01842  -0.02275  -0.04746  -0.07896   0.50331
    Z1        1.12941  -0.01114  -0.01755  -0.04383  -0.06689   1.06252
    X2        5.86525  -0.00910  -0.01848  -0.03215  -0.05004   5.81521
    Y2       -0.11959  -0.01651   0.04430   0.02414   0.06164  -0.05795
    Z2        1.33478  -0.01115   0.03042   0.01349   0.04010   1.37488
    X3        7.56224   0.00716  -0.00922  -0.01982  -0.03031   7.53193
    Y3        1.14142  -0.00813   0.03879   0.03092   0.06445   1.20586
    Z3        2.64702  -0.00426   0.02101   0.01698   0.03513   2.68216
    X4        6.61678   0.00071  -0.01512   0.00845  -0.01027   6.60651
    Y4        3.18548   0.04067   0.04319   0.04114   0.07851   3.26399
    Z4        3.72254   0.02786   0.02150   0.03319   0.05091   3.77345
    X5        4.18894  -0.03647  -0.02733  -0.02376  -0.05521   4.13373
    Y5        4.15423  -0.03418  -0.01527  -0.05917  -0.08222   4.07201
    Z5        3.66359  -0.03227  -0.02209  -0.04309  -0.07073   3.59286
    X6        2.52124  -0.02196  -0.03278  -0.02274  -0.05752   2.46372
    Y6        2.65791   0.01240  -0.01725  -0.04615  -0.07270   2.58521
    Z6        2.23470  -0.00131  -0.02673  -0.04416  -0.07733   2.15737
    X7        0.01196  -0.02796  -0.00264   0.00028  -0.00456   0.00740
    Y7        3.17243   0.00070  -0.03365  -0.00269  -0.04759   3.12484
    Z7        1.85975  -0.00899  -0.01610  -0.00271  -0.02696   1.83279
    X8        3.86899  -0.02753   0.03614   0.01634   0.04570   3.91469
    Y8        6.38336  -0.02818  -0.01568  -0.07528  -0.09869   6.28467
    Z8        5.05603  -0.02663  -0.00021  -0.03492  -0.04115   5.01488
    X9        6.02820   0.09557   0.10723   0.03270   0.13215   6.16035
    Y9        6.76340   0.03049  -0.03493   0.02350  -0.01727   6.74612
    Z9        5.94530   0.04861   0.01044   0.02335   0.02919   5.97449
   X10        7.84315  -0.01103   0.01341   0.03626   0.04377   7.88693
   Y10        4.87219   0.03090   0.02617   0.04104   0.06261   4.93480
   Z10        5.21154   0.01728   0.02179   0.03279   0.05141   5.26295
   X11        6.50153  -0.01354  -0.01255  -0.01819  -0.02824   6.47329
   Y11       -1.87336   0.02636   0.11857   0.04319   0.15534  -1.71802
   Z11        0.36157   0.01326   0.06886   0.02195   0.08768   0.44926
   X12       -0.84094   0.02250   0.05208   0.05923   0.10741  -0.73352
   Y12        4.82719  -0.04480  -0.10731   0.00471  -0.11434   4.71285
   Z12        2.56353  -0.01802  -0.05712   0.02664  -0.03936   2.52416
   X13       -1.03194   0.02899   0.00019  -0.05608  -0.05651  -1.08845
   Y13        1.85214   0.04100   0.07042   0.05828   0.11644   1.96858
   Z13        0.75844   0.03255   0.04580   0.01451   0.05161   0.81004
   X14        6.63652  -0.01402   0.01994   0.01554   0.02569   6.66221
   Y14        8.38872  -0.03563  -0.10036   0.02196  -0.08367   8.30505
   Z14        7.22036  -0.02843  -0.06082   0.01271  -0.05261   7.16774
   X15        9.64504   0.00275  -0.08823   0.08536  -0.00898   9.63606
   Y15        4.76274   0.00334   0.00575   0.05387   0.05645   4.81920
   Z15        5.69147   0.00263  -0.01921   0.05022   0.02901   5.72048
         Item               Value     Threshold  Converged?
 Maximum Force            0.095572     0.000450     NO 
 RMS     Force            0.027649     0.000300     NO 
 Maximum Displacement     0.155339     0.001800     NO 
 RMS     Displacement     0.067057     0.001200     NO 
 Predicted change in Energy=-1.118813D-02
 GradGradGradGradGradGradGradGradGradGradGradGradGradGradGradGradGradGrad

                          Input orientation:                          
 ---------------------------------------------------------------------
 Center     Atomic      Atomic             Coordinates (Angstroms)
 Number     Number       Type             X           Y           Z
 ---------------------------------------------------------------------
      1          7           0        1.788473    0.266340    0.562262
      2          6           0        3.077277   -0.030666    0.727558
      3          7           0        3.985725    0.638116    1.419336
      4          6           0        3.496015    1.727229    1.996824
      5          6           0        2.187473    2.154816    1.901262
      6          6           0        1.303745    1.368035    1.141631
      7          7           0        0.003915    1.653592    0.969868
      8          7           0        2.071565    3.325705    2.653759
      9          6           0        3.259918    3.569896    3.161566
     10          7           0        4.173582    2.611384    2.785031
     11          1           0        3.425515   -0.909135    0.237736
     12          1           0       -0.388164    2.493934    1.335729
     13          1           0       -0.575983    1.041727    0.428655
     14          1           0        3.525488    4.394843    3.793006
     15          1           0        5.099182    2.550210    3.027146
 ---------------------------------------------------------------------
                    Distance matrix (angstroms):
                    1          2          3          4          5
     1  N    0.000000
     2  C    1.332873   0.000000
     3  N    2.387616   1.323293   0.000000
     4  C    2.666058   2.208296   1.326452   0.000000
     5  C    2.349141   2.635462   2.401321   1.379943   0.000000
     6  C    1.335800   2.296353   2.793371   2.380425   1.406072
     7  N    2.296793   3.512975   4.133767   3.640717   2.426241
     8  N    3.716748   3.998366   3.522917   2.239586   1.396663
     9  C    4.453652   4.349919   3.486760   2.192666   2.177373
    10  N    4.016053   3.523565   2.407115   1.364587   2.221290
    11  H    2.041315   1.064379   2.025833   3.170138   3.699711
    12  H    3.209077   4.330446   4.752048   4.013942   2.658710
    13  H    2.491932   3.819119   4.685459   4.417038   3.323285
    14  H    5.522632   5.402129   4.467564   3.216100   3.222840
    15  H    4.717257   4.004639   2.735131   2.075815   3.146744
                    6          7          8          9         10
     6  C    0.000000
     7  N    1.341865   0.000000
     8  N    2.590087   3.147479   0.000000
     9  C    3.571406   4.367759   1.315173   0.000000
    10  N    3.533079   4.647398   2.223952   1.376701   0.000000
    11  H    3.241055   4.337158   5.060061   5.351441   4.409350
    12  H    2.041539   0.996873   2.911926   4.218990   4.787880
    13  H    2.036710   1.001784   4.144532   5.345519   5.529439
    14  H    4.596466   5.280723   2.134205   1.072279   2.148665
    15  H    4.399778   5.567591   3.147583   2.107302   0.958696
                   11         12         13         14         15
    11  H    0.000000
    12  H    5.227870   0.000000
    13  H    4.455816   1.722488   0.000000
    14  H    6.386088   4.996832   6.275691   0.000000
    15  H    4.748582   5.742389   6.421462   2.542779   0.000000
 Stoichiometry    C5H5N5
 Framework group  C1[X(C5H5N5)]
 Deg. of freedom    39
 Full point group                 C1      NOp   1
 Largest Abelian subgroup         C1      NOp   1
 Largest concise Abelian subgroup C1      NOp   1
                         Standard orientation:                         
 ---------------------------------------------------------------------
 Center     Atomic      Atomic             Coordinates (Angstroms)
 Number     Number       Type             X           Y           Z
 ---------------------------------------------------------------------
      1          7           0       -1.930415    0.564602   -0.006527
      2          6           0       -1.245716    1.708157   -0.002022
      3          7           0        0.067370    1.872056    0.004850
      4          6           0        0.730872    0.723475    0.006637
      5          6           0        0.149170   -0.527863    0.010955
      6          6           0       -1.255577   -0.588172    0.001631
      7          7           0       -1.957087   -1.732036   -0.006310
      8          7           0        1.179517   -1.470706    0.000903
      9          6           0        2.309648   -0.798070   -0.005771
     10          7           0        2.085633    0.560279   -0.002695
     11          1           0       -1.821999    2.603002    0.005233
     12          1           0       -1.497765   -2.614551    0.056505
     13          1           0       -2.958259   -1.705367   -0.028963
     14          1           0        3.298116   -1.213559   -0.014806
     15          1           0        2.734399    1.265944   -0.018096
 ---------------------------------------------------------------------
 Rotational constants (GHZ):      2.4498319      1.5429233      0.9467209
 Standard basis: 6-31+G (6D, 7F)
 There are   140 symmetry adapted cartesian basis functions of A   symmetry.
 There are   140 symmetry adapted basis functions of A   symmetry.
   140 basis functions,   280 primitive gaussians,   140 cartesian basis functions
    35 alpha electrons       35 beta electrons
       nuclear repulsion energy       504.4928132051 Hartrees.
 NAtoms=   15 NActive=   15 NUniq=   15 SFac= 1.00D+00 NAtFMM=   60 NAOKFM=F Big=F
 Integral buffers will be    262144 words long.
 Raffenetti 1 integral format.
 Two-electron integral symmetry is turned on.
 One-electron integrals computed using PRISM.
 NBasis=   140 RedAO= T EigKep=  7.10D-06  NBF=   140
 NBsUse=   140 1.00D-06 EigRej= -1.00D+00 NBFU=   140
 Initial guess from the checkpoint file:  "C:\G09W\Scratch\gxx.chk"
 B after Tr=     0.000000    0.000000    0.000000
         Rot=    0.999701    0.000021    0.000013    0.024443 Ang=   2.80 deg.
 ExpMin= 4.38D-02 ExpMax= 4.17D+03 ExpMxC= 6.27D+02 IAcc=2 IRadAn=         4 AccDes= 0.00D+00
 Harris functional with IExCor=  205 and IRadAn=       4 diagonalized for initial guess.
 HarFok:  IExCor=  205 AccDes= 0.00D+00 IRadAn=         4 IDoV= 1 UseB2=F ITyADJ=14
 ICtDFT=  3500011 ScaDFX=  1.000000  1.000000  1.000000  1.000000
 FoFCou: FMM=F IPFlag=           0 FMFlag=      100000 FMFlg1=           0
         NFxFlg=           0 DoJE=T BraDBF=F KetDBF=T FulRan=T
         wScrn=  0.000000 ICntrl=     500 IOpCl=  0 I1Cent=   200000004 NGrid=           0
         NMat0=    1 NMatS0=      1 NMatT0=    0 NMatD0=    1 NMtDS0=    0 NMtDT0=    0
 Petite list used in FoFCou.
 Requested convergence on RMS density matrix=1.00D-08 within 128 cycles.
 Requested convergence on MAX density matrix=1.00D-06.
 Requested convergence on             energy=1.00D-06.
 No special actions if energy rises.
 Initial convergence to 1.0D-05 achieved.  Increase integral accuracy.
 SCF Done:  E(RHF) =  -464.306175374     A.U. after   17 cycles
            NFock= 17  Conv=0.23D-08     -V/T= 1.9993
 Calling FoFJK, ICntrl=      2127 FMM=F ISym2X=0 I1Cent= 0 IOpClX= 0 NMat=1 NMatS=1 NMatT=0.
 ***** Axes restored to original set *****
 -------------------------------------------------------------------
 Center     Atomic                   Forces (Hartrees/Bohr)
 Number     Number              X              Y              Z
 -------------------------------------------------------------------
      1        7           0.001233568    0.003426172    0.002392036
      2        6           0.010486843   -0.011319120   -0.005650129
      3        7           0.000265414   -0.007481116   -0.004560427
      4        6           0.009333721   -0.005698368   -0.001094985
      5        6           0.011144038    0.010225516    0.010872578
      6        6          -0.002347906    0.004319622    0.003177042
      7        7          -0.010588435    0.005251384   -0.001795541
      8        7           0.004521067    0.012831778    0.009107823
      9        6          -0.018626034   -0.005022411   -0.008585078
     10        7          -0.045792866    0.003102600   -0.011613321
     11        1          -0.001044869   -0.003488347   -0.001721909
     12        1           0.001883290   -0.004988786   -0.000617085
     13        1           0.008296863    0.005022690    0.005109271
     14        1          -0.004535184   -0.003700266   -0.003843509
     15        1           0.035770489   -0.002481349    0.008823232
 -------------------------------------------------------------------
 Cartesian Forces:  Max     0.045792866 RMS     0.011099485

 GradGradGradGradGradGradGradGradGradGradGradGradGradGradGradGradGradGrad
 Berny optimization.
 Search for a local minimum.
 Step number   4 out of a maximum of   55
 All quantities printed in internal units (Hartrees-Bohrs-Radians)
 Update second derivatives using D2CorN and points    2    3    4
 DE= -2.15D-02 DEPred=-1.12D-02 R= 1.92D+00
 TightC=F SS=  1.41D+00  RLast= 4.50D-01 DXNew= 1.4270D+00 1.3495D+00
 Trust test= 1.92D+00 RLast= 4.50D-01 DXMaxT set to 1.35D+00
 ITU=  1  1  1  0
     Eigenvalues ---    0.00724   0.00878   0.01240   0.02023   0.03336
     Eigenvalues ---    0.03787   0.04391   0.06893   0.08561   0.10291
     Eigenvalues ---    0.11718   0.13404   0.13828   0.14502   0.19893
     Eigenvalues ---    0.20192   0.24044   0.24834   0.27494   0.30531
     Eigenvalues ---    0.34789   0.40090   0.43983   0.49398   0.55080
     Eigenvalues ---    0.62687   0.82870   0.95775   1.11787   1.22992
     Eigenvalues ---    1.34592   1.47068   1.57437   1.74117   1.82227
     Eigenvalues ---    1.98468   2.05821   2.10384   4.10585
 RFO step:  Lambda=-5.22166341D-03 EMin= 7.24330101D-03
 Quartic linear search produced a step of -0.17415.
 TrRot=  0.008242 -0.016485 -0.010866  0.239316 -0.001019 -0.238460
 Variable       Old X    -DE/DX   Delta X   Delta X   Delta X     New X
                                 (Linear)    (Quad)   (Total)
    X1        3.37972   0.00123   0.00925   0.00886   0.02489   3.40461
    Y1        0.50331   0.00343   0.01375  -0.02221  -0.02229   0.48102
    Z1        1.06252   0.00239   0.01165  -0.03174  -0.02747   1.03505
    X2        5.81521   0.01049   0.00871   0.01066   0.02640   5.84161
    Y2       -0.05795  -0.01132  -0.01073  -0.05761  -0.08016  -0.13811
    Z2        1.37488  -0.00565  -0.00698  -0.03239  -0.04449   1.33040
    X3        7.53193   0.00027   0.00528   0.01976   0.02967   7.56160
    Y3        1.20586  -0.00748  -0.01122  -0.05775  -0.07963   1.12624
    Z3        2.68216  -0.00456  -0.00612  -0.01673  -0.02596   2.65620
    X4        6.60651   0.00933   0.00179   0.04702   0.05054   6.65705
    Y4        3.26399  -0.00570  -0.01367  -0.02841  -0.05378   3.21021
    Z4        3.77345  -0.00109  -0.00887   0.01009  -0.00228   3.77117
    X5        4.13373   0.01114   0.00961   0.03157   0.04239   4.17612
    Y5        4.07201   0.01023   0.01432  -0.04931  -0.04878   4.02324
    Z5        3.59286   0.01087   0.01232   0.00308   0.00964   3.60250
    X6        2.46372  -0.00235   0.01002   0.02531   0.03921   2.50293
    Y6        2.58521   0.00432   0.01266  -0.01649  -0.01870   2.56651
    Z6        2.15737   0.00318   0.01347  -0.00279   0.00290   2.16027
    X7        0.00740  -0.01059   0.00079   0.03859   0.04300   0.05040
    Y7        3.12484   0.00525   0.00829   0.08524   0.07663   3.20146
    Z7        1.83279  -0.00180   0.00470   0.05514   0.04979   1.88257
    X8        3.91469   0.00452  -0.00796  -0.05631  -0.06633   3.84836
    Y8        6.28467   0.01283   0.01719  -0.04906  -0.04628   6.23839
    Z8        5.01488   0.00911   0.00717  -0.02257  -0.02095   4.99393
    X9        6.16035  -0.01863  -0.02301  -0.08614  -0.11259   6.04776
    Y9        6.74612  -0.00502   0.00301   0.00828  -0.00146   6.74466
    Z9        5.97449  -0.00859  -0.00508  -0.02565  -0.03399   5.94051
   X10        7.88693  -0.04579  -0.00762  -0.01712  -0.02597   7.86095
   Y10        4.93480   0.00310  -0.01090   0.04846   0.02653   4.96133
   Z10        5.26295  -0.01161  -0.00895   0.00769  -0.00314   5.25980
   X11        6.47329  -0.00104   0.00492  -0.02630  -0.01199   6.46130
   Y11       -1.71802  -0.00349  -0.02705  -0.06731  -0.10542  -1.82344
   Z11        0.44926  -0.00172  -0.01527  -0.03625  -0.05643   0.39283
   X12       -0.73352   0.00188  -0.01871   0.12746   0.11023  -0.62329
   Y12        4.71285  -0.00499   0.01991   0.08372   0.08597   4.79882
   Z12        2.52416  -0.00062   0.00686   0.13700   0.13353   2.65769
   X13       -1.08845   0.00830   0.00984  -0.02164  -0.00621  -1.09466
   Y13        1.96858   0.00502  -0.02028   0.17250   0.13459   2.10316
   Z13        0.81004   0.00511  -0.00899   0.04900   0.02857   0.83861
   X14        6.66221  -0.00454  -0.00447  -0.15871  -0.16915   6.49306
   Y14        8.30505  -0.00370   0.01457   0.03155   0.03347   8.33852
   Z14        7.16774  -0.00384   0.00916  -0.05021  -0.04347   7.12427
   X15        9.63606   0.03577   0.00156   0.02603   0.02592   9.66197
   Y15        4.81920  -0.00248  -0.00983   0.11876   0.09932   4.91852
   Z15        5.72048   0.00882  -0.00505   0.03892   0.03375   5.75423
         Item               Value     Threshold  Converged?
 Maximum Force            0.045793     0.000450     NO 
 RMS     Force            0.011099     0.000300     NO 
 Maximum Displacement     0.169151     0.001800     NO 
 RMS     Displacement     0.062710     0.001200     NO 
 Predicted change in Energy=-4.797462D-03
 GradGradGradGradGradGradGradGradGradGradGradGradGradGradGradGradGradGrad

                          Input orientation:                          
 ---------------------------------------------------------------------
 Center     Atomic      Atomic             Coordinates (Angstroms)
 Number     Number       Type             X           Y           Z
 ---------------------------------------------------------------------
      1          7           0        1.801644    0.254543    0.547727
      2          6           0        3.091248   -0.073086    0.704015
      3          7           0        4.001425    0.595978    1.405600
      4          6           0        3.522762    1.698769    1.995618
      5          6           0        2.209905    2.129005    1.906361
      6          6           0        1.324491    1.358138    1.143168
      7          7           0        0.026669    1.694141    0.996214
      8          7           0        2.036462    3.301216    2.642672
      9          6           0        3.200339    3.569123    3.143581
     10          7           0        4.159838    2.625422    2.783367
     11          1           0        3.419171   -0.964922    0.207876
     12          1           0       -0.329831    2.539426    1.406391
     13          1           0       -0.579271    1.112947    0.443771
     14          1           0        3.435977    4.412555    3.770002
     15          1           0        5.112896    2.602769    3.045008
 ---------------------------------------------------------------------
                    Distance matrix (angstroms):
                    1          2          3          4          5
     1  N    0.000000
     2  C    1.339718   0.000000
     3  N    2.385699   1.329771   0.000000
     4  C    2.672906   2.234706   1.339174   0.000000
     5  C    2.350781   2.659248   2.410493   1.384436   0.000000
     6  C    1.341695   2.315747   2.795663   2.382245   1.400234
     7  N    2.328974   3.549664   4.143941   3.636137   2.404994
     8  N    3.704883   4.031982   3.565072   2.279387   1.395105
     9  C    4.436355   4.385096   3.535804   2.218107   2.141405
    10  N    4.022466   3.570369   2.458044   1.372990   2.194950
    11  H    2.054018   1.071942   2.051822   3.209673   3.730893
    12  H    3.240552   4.361459   4.747291   3.987024   2.620815
    13  H    2.533065   3.866149   4.709049   4.424713   3.309236
    14  H    5.508463   5.444271   4.525084   3.243548   3.192336
    15  H    4.766023   4.089928   2.819617   2.108783   3.154097
                    6          7          8          9         10
     6  C    0.000000
     7  N    1.348643   0.000000
     8  N    2.555576   3.054961   0.000000
     9  C    3.522629   4.266020   1.295103   0.000000
    10  N    3.512186   4.598292   2.232759   1.393184   0.000000
    11  H    3.264822   4.381914   5.102946   5.405906   4.480214
    12  H    2.049758   1.004910   2.776339   4.066965   4.696869
    13  H    2.042935   1.005058   4.057801   5.254258   5.497312
    14  H    4.548416   5.167887   2.112957   1.076710   2.165933
    15  H    4.417931   5.558136   3.180274   2.145094   0.988580
                   11         12         13         14         15
    11  H    0.000000
    12  H    5.269906   0.000000
    13  H    4.512286   1.738879   0.000000
    14  H    6.450293   4.824580   6.170368   0.000000
    15  H    4.862761   5.684395   6.433255   2.571574   0.000000
 Stoichiometry    C5H5N5
 Framework group  C1[X(C5H5N5)]
 Deg. of freedom    39
 Full point group                 C1      NOp   1
 Largest Abelian subgroup         C1      NOp   1
 Largest concise Abelian subgroup C1      NOp   1
                         Standard orientation:                         
 ---------------------------------------------------------------------
 Center     Atomic      Atomic             Coordinates (Angstroms)
 Number     Number       Type             X           Y           Z
 ---------------------------------------------------------------------
      1          7           0       -1.953460    0.494674    0.001451
      2          6           0       -1.340725    1.686054   -0.002427
      3          7           0       -0.029056    1.904717   -0.001564
      4          6           0        0.703758    0.783840    0.000857
      5          6           0        0.177974   -0.496868    0.000047
      6          6           0       -1.216261   -0.626345    0.000254
      7          7           0       -1.823276   -1.830657   -0.000850
      8          7           0        1.206517   -1.439391   -0.008233
      9          6           0        2.304125   -0.752006   -0.001132
     10          7           0        2.067024    0.620832    0.006820
     11          1           0       -1.977247    2.548550   -0.002692
     12          1           0       -1.279393   -2.674791    0.037543
     13          1           0       -2.826961   -1.883008   -0.005050
     14          1           0        3.300820   -1.159318   -0.001972
     15          1           0        2.735312    1.349301    0.003211
 ---------------------------------------------------------------------
 Rotational constants (GHZ):      2.3850549      1.5702438      0.9468722
 Standard basis: 6-31+G (6D, 7F)
 There are   140 symmetry adapted cartesian basis functions of A   symmetry.
 There are   140 symmetry adapted basis functions of A   symmetry.
   140 basis functions,   280 primitive gaussians,   140 cartesian basis functions
    35 alpha electrons       35 beta electrons
       nuclear repulsion energy       503.3233781260 Hartrees.
 NAtoms=   15 NActive=   15 NUniq=   15 SFac= 1.00D+00 NAtFMM=   60 NAOKFM=F Big=F
 Integral buffers will be    262144 words long.
 Raffenetti 1 integral format.
 Two-electron integral symmetry is turned on.
 One-electron integrals computed using PRISM.
 NBasis=   140 RedAO= T EigKep=  7.51D-06  NBF=   140
 NBsUse=   140 1.00D-06 EigRej= -1.00D+00 NBFU=   140
 Initial guess from the checkpoint file:  "C:\G09W\Scratch\gxx.chk"
 B after Tr=     0.000000    0.000000    0.000000
         Rot=    0.999797    0.000041   -0.000027   -0.020131 Ang=   2.31 deg.
 ExpMin= 4.38D-02 ExpMax= 4.17D+03 ExpMxC= 6.27D+02 IAcc=2 IRadAn=         4 AccDes= 0.00D+00
 Harris functional with IExCor=  205 and IRadAn=       4 diagonalized for initial guess.
 HarFok:  IExCor=  205 AccDes= 0.00D+00 IRadAn=         4 IDoV= 1 UseB2=F ITyADJ=14
 ICtDFT=  3500011 ScaDFX=  1.000000  1.000000  1.000000  1.000000
 FoFCou: FMM=F IPFlag=           0 FMFlag=      100000 FMFlg1=           0
         NFxFlg=           0 DoJE=T BraDBF=F KetDBF=T FulRan=T
         wScrn=  0.000000 ICntrl=     500 IOpCl=  0 I1Cent=   200000004 NGrid=           0
         NMat0=    1 NMatS0=      1 NMatT0=    0 NMatD0=    1 NMtDS0=    0 NMtDT0=    0
 Petite list used in FoFCou.
 Requested convergence on RMS density matrix=1.00D-08 within 128 cycles.
 Requested convergence on MAX density matrix=1.00D-06.
 Requested convergence on             energy=1.00D-06.
 No special actions if energy rises.
 Initial convergence to 1.0D-05 achieved.  Increase integral accuracy.
 SCF Done:  E(RHF) =  -464.309383923     A.U. after   15 cycles
            NFock= 15  Conv=0.58D-08     -V/T= 1.9998
 Calling FoFJK, ICntrl=      2127 FMM=F ISym2X=0 I1Cent= 0 IOpClX= 0 NMat=1 NMatS=1 NMatT=0.
 ***** Axes restored to original set *****
 -------------------------------------------------------------------
 Center     Atomic                   Forces (Hartrees/Bohr)
 Number     Number              X              Y              Z
 -------------------------------------------------------------------
      1        7          -0.001996405    0.002604332    0.001814641
      2        6           0.002693079    0.001312429    0.001175609
      3        7           0.000942677   -0.000438814   -0.000191133
      4        6          -0.002782494    0.002012701   -0.000675266
      5        6           0.001562132   -0.000060946    0.001572249
      6        6          -0.002361264    0.002232775    0.001146111
      7        7          -0.007521881    0.000806500   -0.003471136
      8        7           0.000658116   -0.000331443   -0.001580610
      9        6           0.009240364    0.000427166    0.003067729
     10        7          -0.012601111   -0.000630572   -0.002642706
     11        1          -0.001140397    0.002788053    0.001683037
     12        1           0.004262871   -0.011551712   -0.004699043
[...]
     Eigenvalues ---    0.04693   0.06976   0.07383   0.09472   0.11700
     Eigenvalues ---    0.12869   0.13122   0.15053   0.17080   0.19154
     Eigenvalues ---    0.24209   0.25303   0.26482   0.30002   0.30074
     Eigenvalues ---    0.36807   0.41877   0.43055   0.51518   0.54246
     Eigenvalues ---    0.60731   0.79907   0.95592   1.10937   1.23006
     Eigenvalues ---    1.34570   1.47235   1.57136   1.74007   1.81889
     Eigenvalues ---    1.98666   2.03656   2.10381   3.90575
 RFO step:  Lambda=-1.26766800D-07 EMin= 7.37340592D-03
 Quartic linear search produced a step of  0.63179.
 TrRot= -0.000037 -0.000024  0.000111  0.000001  0.000007  0.000001
 Variable       Old X    -DE/DX   Delta X   Delta X   Delta X     New X
                                 (Linear)    (Quad)   (Total)
    X1        3.39959   0.00000   0.00016  -0.00006   0.00006   3.39965
    Y1        0.51207  -0.00001  -0.00002  -0.00001  -0.00005   0.51202
    Z1        1.05378   0.00001  -0.00022   0.00010  -0.00003   1.05375
    X2        5.83522   0.00001   0.00018  -0.00004   0.00012   5.83533
    Y2       -0.11355   0.00002   0.00001   0.00007   0.00007  -0.11348
    Z2        1.34344   0.00001  -0.00018   0.00003  -0.00008   1.34336
    X3        7.55649   0.00000  -0.00001  -0.00002  -0.00005   7.55644
    Y3        1.13873   0.00002  -0.00015   0.00005  -0.00011   1.13862
    Z3        2.66589   0.00000   0.00025  -0.00002   0.00029   2.66618
    X4        6.63766  -0.00001  -0.00011  -0.00008  -0.00021   6.63745
    Y4        3.21771   0.00000  -0.00021  -0.00008  -0.00031   3.21740
    Z4        3.77199   0.00001   0.00033   0.00010   0.00049   3.77248
    X5        4.16747  -0.00001  -0.00005  -0.00015  -0.00021   4.16726
    Y5        4.05073  -0.00001  -0.00013  -0.00021  -0.00036   4.05037
    Z5        3.60859   0.00004  -0.00007   0.00048   0.00049   3.60908
    X6        2.49547  -0.00001   0.00005  -0.00011  -0.00008   2.49539
    Y6        2.59669  -0.00004  -0.00010  -0.00011  -0.00022   2.59647
    Z6        2.16852   0.00004  -0.00012   0.00021   0.00018   2.16870
    X7        0.04782  -0.00002   0.00011  -0.00005   0.00003   0.04785
    Y7        3.19177   0.00004   0.00018  -0.00004   0.00012   3.19189
    Z7        1.85910  -0.00002   0.00010  -0.00037  -0.00016   1.85894
    X8        3.86924  -0.00002  -0.00015   0.00009  -0.00008   3.86916
    Y8        6.27121   0.00000   0.00009  -0.00009  -0.00001   6.27120
    Z8        4.98970   0.00002  -0.00055   0.00045  -0.00001   4.98969
    X9        6.08035   0.00002  -0.00016   0.00017   0.00000   6.08035
    Y9        6.73955  -0.00002   0.00009   0.00010   0.00018   6.73973
    Z9        5.93817  -0.00001  -0.00039   0.00007  -0.00025   5.93792
   X10        7.84712  -0.00030  -0.00016   0.00005  -0.00012   7.84700
   Y10        4.94337   0.00008  -0.00021   0.00013  -0.00009   4.94328
   Z10        5.26157  -0.00007   0.00031  -0.00023   0.00013   5.26171
   X11        6.43953   0.00004   0.00049  -0.00001   0.00045   6.43998
   Y11       -1.79644   0.00002   0.00044   0.00005   0.00048  -1.79596
   Z11        0.40867  -0.00001  -0.00078   0.00009  -0.00063   0.40804
   X12       -0.68208   0.00003   0.00054  -0.00036   0.00016  -0.68193
   Y12        4.72042  -0.00001   0.00023  -0.00030  -0.00010   4.72032
   Z12        2.65922  -0.00001   0.00037  -0.00014   0.00034   2.65957
   X13       -1.03379  -0.00005  -0.00048   0.00032  -0.00020  -1.03399
   Y13        2.07559  -0.00001  -0.00002   0.00026   0.00021   2.07580
   Z13        0.81325  -0.00003   0.00094  -0.00112  -0.00006   0.81319
   X14        6.53539   0.00002  -0.00017   0.00039   0.00022   6.53561
   Y14        8.31143   0.00001   0.00046   0.00026   0.00072   8.31214
   Z14        7.10944  -0.00003  -0.00088  -0.00021  -0.00103   7.10841
   X15        9.65427   0.00028  -0.00024   0.00016  -0.00008   9.65419
   Y15        4.89124  -0.00008  -0.00066   0.00015  -0.00052   4.89072
   Z15        5.74869   0.00005   0.00089  -0.00062   0.00032   5.74901
         Item               Value     Threshold  Converged?
 Maximum Force            0.000304     0.000450     YES
 RMS     Force            0.000068     0.000300     YES
 Maximum Displacement     0.001026     0.001800     YES
 RMS     Displacement     0.000308     0.001200     YES
 Predicted change in Energy=-7.708693D-08
 Optimization completed.
    -- Stationary point found.
 GradGradGradGradGradGradGradGradGradGradGradGradGradGradGradGradGradGrad

                          Input orientation:                          
 ---------------------------------------------------------------------
 Center     Atomic      Atomic             Coordinates (Angstroms)
 Number     Number       Type             X           Y           Z
 ---------------------------------------------------------------------
      1          7           0        1.798984    0.270978    0.557638
      2          6           0        3.087865   -0.060086    0.710916
      3          7           0        3.998724    0.602589    1.410729
      4          6           0        3.512500    1.702737    1.996053
      5          6           0        2.205331    2.143554    1.909584
      6          6           0        1.320546    1.374110    1.147530
      7          7           0        0.025305    1.689014    0.983794
      8          7           0        2.047515    3.318581    2.640438
      9          6           0        3.217582    3.566418    3.142345
     10          7           0        4.152519    2.615919    2.784305
     11          1           0        3.407653   -0.950634    0.216258
     12          1           0       -0.360944    2.497938    1.407200
     13          1           0       -0.547056    1.098355    0.430353
     14          1           0        3.458382    4.398218    3.762151
     15          1           0        5.108819    2.588332    3.042076
 ---------------------------------------------------------------------
                    Distance matrix (angstroms):
                    1          2          3          4          5
     1  N    0.000000
     2  C    1.339519   0.000000
     3  N    2.382559   1.326100   0.000000
     4  C    2.656146   2.222484   1.337664   0.000000
     5  C    2.345083   2.659266   2.416545   1.382204   0.000000
     6  C    1.339319   2.317534   2.799492   2.373320   1.398433
     7  N    2.310492   3.537384   4.141335   3.631169   2.411682
     8  N    3.699690   4.027502   3.563146   2.274283   1.392746
     9  C    4.421884   4.368089   3.520364   2.207775   2.137497
    10  N    3.999490   3.548722   2.442102   1.365601   2.186276
    11  H    2.048583   1.067721   2.046614   3.196724   3.726517
    12  H    3.216581   4.350009   4.753847   3.997832   2.638891
    13  H    2.490915   3.825356   4.676648   4.392800   3.294875
    14  H    5.482391   5.415145   4.497550   3.222987   3.175792
    15  H    4.743160   4.066040   2.799425   2.103967   3.148112
                    6          7          8          9         10
     6  C    0.000000
     7  N    1.342991   0.000000
     8  N    2.556996   3.080470   0.000000
     9  C    3.519126   4.286564   1.297070   0.000000
    10  N    3.498741   4.597270   2.223842   1.380488   0.000000
    11  H    3.260018   4.358571   5.094391   5.385339   4.457577
    12  H    2.039075   0.991372   2.827544   4.118037   4.720347
    13  H    2.019485   0.991349   4.067638   5.255353   5.470840
    14  H    4.533411   5.181223   2.101048   1.064911   2.148162
    15  H    4.406206   5.557645   3.172721   2.131545   0.990816
                   11         12         13         14         15
    11  H    0.000000
    12  H    5.245314   0.000000
    13  H    4.459138   1.716887   0.000000
    14  H    6.417644   4.872793   6.167131   0.000000
    15  H    4.837716   5.709579   6.405470   2.553064   0.000000
 Stoichiometry    C5H5N5
 Framework group  C1[X(C5H5N5)]
 Deg. of freedom    39
 Full point group                 C1      NOp   1
 Largest Abelian subgroup         C1      NOp   1
 Largest concise Abelian subgroup C1      NOp   1
                         Standard orientation:                         
 ---------------------------------------------------------------------
 Center     Atomic      Atomic             Coordinates (Angstroms)
 Number     Number       Type             X           Y           Z
 ---------------------------------------------------------------------
      1          7           0       -1.937560    0.506290    0.000231
      2          6           0       -1.316056    1.692900   -0.000179
      3          7           0       -0.006528    1.901891   -0.000179
      4          6           0        0.705513    0.769486    0.000459
      5          6           0        0.176982   -0.507675    0.001168
      6          6           0       -1.216728   -0.622504    0.000580
      7          7           0       -1.857429   -1.802812   -0.000665
      8          7           0        1.202744   -1.449776    0.000591
      9          6           0        2.299797   -0.757776   -0.000419
     10          7           0        2.060787    0.601865   -0.000441
     11          1           0       -1.946184    2.554855   -0.001029
     12          1           0       -1.354159   -2.656942   -0.001254
     13          1           0       -2.848734   -1.811988   -0.001739
     14          1           0        3.284244   -1.163851   -0.001545
     15          1           0        2.733680    1.329142   -0.000838
 ---------------------------------------------------------------------
 Rotational constants (GHZ):      2.4020113      1.5727493      0.9504377

 **********************************************************************

            Population analysis using the SCF density.

 **********************************************************************

 Orbital symmetries:
       Occupied  (A) (A) (A) (A) (A) (A) (A) (A) (A) (A) (A) (A)
                 (A) (A) (A) (A) (A) (A) (A) (A) (A) (A) (A) (A)
                 (A) (A) (A) (A) (A) (A) (A) (A) (A) (A) (A)
       Virtual   (A) (A) (A) (A) (A) (A) (A) (A) (A) (A) (A) (A)
                 (A) (A) (A) (A) (A) (A) (A) (A) (A) (A) (A) (A)
                 (A) (A) (A) (A) (A) (A) (A) (A) (A) (A) (A) (A)
                 (A) (A) (A) (A) (A) (A) (A) (A) (A) (A) (A) (A)
                 (A) (A) (A) (A) (A) (A) (A) (A) (A) (A) (A) (A)
                 (A) (A) (A) (A) (A) (A) (A) (A) (A) (A) (A) (A)
                 (A) (A) (A) (A) (A) (A) (A) (A) (A) (A) (A) (A)
                 (A) (A) (A) (A) (A) (A) (A) (A) (A) (A) (A) (A)
                 (A) (A) (A) (A) (A) (A) (A) (A) (A)
 The electronic state is 1-A.
 Alpha  occ. eigenvalues --  -15.64507 -15.59503 -15.59113 -15.58269 -15.57406
 Alpha  occ. eigenvalues --  -11.36205 -11.34178 -11.34137 -11.32862 -11.27677
 Alpha  occ. eigenvalues --   -1.40171  -1.33397  -1.27184  -1.20957  -1.17472
 Alpha  occ. eigenvalues --   -1.06661  -0.91937  -0.89800  -0.86092  -0.80216
 Alpha  occ. eigenvalues --   -0.75808  -0.71575  -0.69564  -0.65605  -0.65171
 Alpha  occ. eigenvalues --   -0.63637  -0.61554  -0.57169  -0.50878  -0.49120
 Alpha  occ. eigenvalues --   -0.44860  -0.43135  -0.40632  -0.38137  -0.32414
 Alpha virt. eigenvalues --    0.05894   0.07232   0.08130   0.08909   0.09543
 Alpha virt. eigenvalues --    0.09720   0.10005   0.12095   0.13170   0.13236
 Alpha virt. eigenvalues --    0.13556   0.14015   0.15542   0.15656   0.17269
 Alpha virt. eigenvalues --    0.17613   0.18934   0.19840   0.20201   0.21242
 Alpha virt. eigenvalues --    0.22690   0.24310   0.25928   0.26047   0.26888
 Alpha virt. eigenvalues --    0.27828   0.28734   0.29968   0.30701   0.32028
 Alpha virt. eigenvalues --    0.32061   0.32329   0.33104   0.33405   0.33789
 Alpha virt. eigenvalues --    0.35112   0.35841   0.36081   0.37423   0.38233
 Alpha virt. eigenvalues --    0.38812   0.39686   0.40855   0.41592   0.42643
 Alpha virt. eigenvalues --    0.43478   0.44846   0.47204   0.47871   0.49302
 Alpha virt. eigenvalues --    0.51304   0.52841   0.55369   0.57799   0.62847
 Alpha virt. eigenvalues --    0.64247   0.68656   0.70434   0.84069   0.85982
 Alpha virt. eigenvalues --    0.88694   0.92171   0.94693   0.95471   0.99637
 Alpha virt. eigenvalues --    1.02006   1.03812   1.07877   1.10043   1.10368
 Alpha virt. eigenvalues --    1.14857   1.17629   1.17914   1.19480   1.20929
 Alpha virt. eigenvalues --    1.21081   1.24948   1.26763   1.27661   1.28016
 Alpha virt. eigenvalues --    1.30528   1.32528   1.32755   1.33482   1.35328
 Alpha virt. eigenvalues --    1.36099   1.38762   1.40607   1.43126   1.44747
 Alpha virt. eigenvalues --    1.46862   1.48139   1.49451   1.51329   1.57821
 Alpha virt. eigenvalues --    1.63757   1.69017   1.76351   1.79924   1.89506
 Alpha virt. eigenvalues --    1.98944   2.03393   2.22006   2.30245   2.33848
          Condensed to atoms (all electrons):
               1          2          3          4          5          6
     1  N    7.669889  -0.004364   0.073200  -0.560190   0.938087  -0.186664
     2  C   -0.004364   6.213183  -0.069943  -0.253538  -0.572481   0.011763
     3  N    0.073200  -0.069943   7.499874  -0.357594   0.945981  -0.552205
     4  C   -0.560190  -0.253538  -0.357594  13.659216  -7.151982   0.077410
     5  C    0.938087  -0.572481   0.945981  -7.151982  19.095776  -6.616167
     6  C   -0.186664   0.011763  -0.552205   0.077410  -6.616167  13.512361
     7  N   -0.351745   0.038849  -0.030962   0.076587  -0.645572   0.457127
     8  N   -0.013911   0.007917   0.001064   0.573859  -0.013449  -0.474919
     9  C    0.041063  -0.146433   0.091371  -0.660730   0.552226  -0.742642
    10  N   -0.029643   0.116502  -0.162449   0.318089  -0.539632   0.126114
    11  H   -0.116544   0.498264  -0.111339   0.048166  -0.060693   0.038035
    12  H    0.012164   0.006126   0.000051  -0.026814  -0.055422   0.061852
    13  H    0.011834  -0.001985   0.000282   0.006653   0.133095  -0.130911
    14  H    0.000161  -0.000141   0.000386  -0.053643   0.095475   0.016754
    15  H   -0.000006   0.000512   0.004968  -0.031981   0.047398   0.000636
               7          8          9         10         11         12
     1  N   -0.351745  -0.013911   0.041063  -0.029643  -0.116544   0.012164
     2  C    0.038849   0.007917  -0.146433   0.116502   0.498264   0.006126
     3  N   -0.030962   0.001064   0.091371  -0.162449  -0.111339   0.000051
     4  C    0.076587   0.573859  -0.660730   0.318089   0.048166  -0.026814
     5  C   -0.645572  -0.013449   0.552226  -0.539632  -0.060693  -0.055422
     6  C    0.457127  -0.474919  -0.742642   0.126114   0.038035   0.061852
     7  N    7.823572   0.025430  -0.026447   0.000056   0.002105   0.302062
     8  N    0.025430   7.085787   0.353169  -0.118724  -0.000133  -0.004590
     9  C   -0.026447   0.353169   5.989964  -0.205388  -0.001642  -0.003155
    10  N    0.000056  -0.118724  -0.205388   8.169352   0.002207   0.000161
    11  H    0.002105  -0.000133  -0.001642   0.002207   0.471171   0.000002
    12  H    0.302062  -0.004590  -0.003155   0.000161   0.000002   0.263860
    13  H    0.267123   0.002056   0.002877   0.000044  -0.000036  -0.005862
    14  H   -0.000004  -0.046023   0.371462  -0.065510   0.000000   0.000003
    15  H    0.000093   0.000570  -0.001589   0.269107  -0.000003   0.000000
              13         14         15
     1  N    0.011834   0.000161  -0.000006
     2  C   -0.001985  -0.000141   0.000512
     3  N    0.000282   0.000386   0.004968
     4  C    0.006653  -0.053643  -0.031981
     5  C    0.133095   0.095475   0.047398
     6  C   -0.130911   0.016754   0.000636
     7  N    0.267123  -0.000004   0.000093
     8  N    0.002056  -0.046023   0.000570
     9  C    0.002877   0.371462  -0.001589
    10  N    0.000044  -0.065510   0.269107
    11  H   -0.000036   0.000000  -0.000003
    12  H   -0.005862   0.000003   0.000000
    13  H    0.265652   0.000000   0.000000
    14  H    0.000000   0.414383   0.001877
    15  H    0.000000   0.001877   0.216723
 Mulliken charges:
               1
     1  N   -0.483330
     2  C    0.155771
     3  N   -0.332684
     4  C    0.336494
     5  C   -0.152640
     6  C    0.401458
     7  N   -0.938273
     8  N   -0.378104
     9  C    0.385895
    10  N   -0.880284
    11  H    0.230439
    12  H    0.449564
    13  H    0.449179
    14  H    0.264820
    15  H    0.491696
 Sum of Mulliken charges =   0.00000
 Mulliken charges with hydrogens summed into heavy atoms:
               1
     1  N   -0.483330
     2  C    0.386210
     3  N   -0.332684
     4  C    0.336494
     5  C   -0.152640
     6  C    0.401458
     7  N   -0.039531
     8  N   -0.378104
     9  C    0.650716
    10  N   -0.388588
 Electronic spatial extent (au):  <R**2>=           1165.1891
 Charge=              0.0000 electrons
 Dipole moment (field-independent basis, Debye):
    X=              2.4365    Y=             -1.0025    Z=             -0.0055  Tot=              2.6347
 Quadrupole moment (field-independent basis, Debye-Ang):
   XX=            -45.4156   YY=            -59.7044   ZZ=            -61.3251
   XY=              6.2608   XZ=              0.0013   YZ=              0.0110
 Traceless Quadrupole moment (field-independent basis, Debye-Ang):
   XX=             10.0661   YY=             -4.2227   ZZ=             -5.8434
   XY=              6.2608   XZ=              0.0013   YZ=              0.0110
 Octapole moment (field-independent basis, Debye-Ang**2):
  XXX=             48.6863  YYY=            -18.3788  ZZZ=             -0.0065  XYY=            -22.0656
  XXY=             -5.5948  XXZ=             -0.0567  XZZ=              0.6485  YZZ=              0.9421
  YYZ=             -0.0345  XYZ=             -0.0079
 Hexadecapole moment (field-independent basis, Debye-Ang**3):
 XXXX=           -728.3593 YYYY=           -608.5667 ZZZZ=            -64.3806 XXXY=             61.0085
 XXXZ=             -0.0011 YYYX=             33.5281 YYYZ=              0.0730 ZZZX=             -0.0006
 ZZZY=              0.0068 XXYY=           -183.1135 XXZZ=           -173.4497 YYZZ=           -122.8606
 XXYZ=              0.0570 YYXZ=              0.0408 ZZXY=              0.7679
 N-N= 5.046025967221D+02 E-N=-2.094674194560D+03  KE= 4.645884133495D+02
 1|1|UNPC-DESKTOP-DODPOI9|FOpt|RHF|6-31+G|C5H5N5|USUARIO|04-Dec-2023|0|
 |# opt=cartesian HF 6-31+||ADENINE||0,1|N,1.7989840659,0.27097825,0.55
 76378218|C,3.0878648966,-0.060085583,0.7109160848|N,3.9987240512,0.602
 5888141,1.4107291725|C,3.5124999573,1.7027371359,1.9960533553|C,2.2053
 311502,2.1435537907,1.9095841476|C,1.3205460068,1.374109577,1.14753035
 9|N,0.0253045258,1.6890142779,0.9837935466|N,2.0475152975,3.3185810645
 ,2.6404377367|C,3.217582167,3.5664183838,3.1423450531|N,4.1525185987,2
 .6159186224,2.7843052963|H,3.4076532895,-0.9506343963,0.2162583608|H,-
 0.3609435708,2.4979381976,1.4071995944|H,-0.5470556917,1.098354655,0.4
 303526309|H,3.4583817141,4.398218045,3.7621513474|H,5.1088188363,2.588
 3324369,3.0420761291||Version=IA32W-G09RevD.01|State=1-A|HF=-464.31034
 07|RMSD=9.163e-009|RMSF=6.830e-005|Dipole=0.2350283,0.8087828,0.604249
 3|Quadrupole=4.4267218,-2.9748181,-1.4519037,4.1174201,5.235967,2.0954
 631|PG=C01 [X(C5H5N5)]||@


 THAT'S WHAT MAKES US A GREAT COUNTRY.
 THE LITTLE THINGS ARE SERIOUS AND THE BIG ONES ARE NOT.
           WILL ROGERS
 Job cpu time:       0 days  0 hours 12 minutes  8.0 seconds.
 File lengths (MBytes):  RWF=     14 Int=      0 D2E=      0 Chk=      2 Scr=      1
 Normal termination of Gaussian 09 at Mon Dec 04 18:49:29 2023.
