 Entering Link 1 = C:\G09W\l1.exe PID=      5016.
  
 Copyright (c) 1988,1990,1992,1993,1995,1998,2003,2009,2013,
            Gaussian, Inc.  All Rights Reserved.
  
 This is part of the Gaussian(R) 09 program.  It is based on
 the Gaussian(R) 03 system (copyright 2003, Gaussian, Inc.),
 the Gaussian(R) 98 system (copyright 1998, Gaussian, Inc.),
 the Gaussian(R) 94 system (copyright 1995, Gaussian, Inc.),
 the Gaussian 92(TM) system (copyright 1992, Gaussian, Inc.),
 the Gaussian 90(TM) system (copyright 1990, Gaussian, Inc.),
 the Gaussian 88(TM) system (copyright 1988, Gaussian, Inc.),
 the Gaussian 86(TM) system (copyright 1986, Carnegie Mellon
 University), and the Gaussian 82(TM) system (copyright 1983,
 Carnegie Mellon University). Gaussian is a federally registered
 trademark of Gaussian, Inc.
  
 This software contains proprietary and confidential information,
 including trade secrets, belonging to Gaussian, Inc.
  
 This software is provided under written license and may be
 used, copied, transmitted, or stored only in accord with that
 written license.
  
 The following legend is applicable only to US Government
 contracts under FAR:
  
                    RESTRICTED RIGHTS LEGEND
  
 Use, reproduction and disclosure by the US Government is
 subject to restrictions as set forth in subparagraphs (a)
 and (c) of the Commercial Computer Software - Restricted
 Rights clause in FAR 52.227-19.
  
 Gaussian, Inc.
 340 Quinnipiac St., Bldg. 40, Wallingford CT 06492
  
  
 ---------------------------------------------------------------
 Warning -- This program may not be used in any manner that
 competes with the business of Gaussian, Inc. or will provide
 assistance to any competitor of Gaussian, Inc.  The licensee
 of this program is prohibited from giving any competitor of
 Gaussian, Inc. access to this program.  By using this program,
 the user acknowledges that Gaussian, Inc. is engaged in the
 business of creating and licensing software in the field of
 computational chemistry and represents and warrants to the
 licensee that it is not a competitor of Gaussian, Inc. and that
 it will not use this program in any manner prohibited above.
 ---------------------------------------------------------------
  

 Cite this work as:
 Gaussian 09, Revision D.01,
 M. J. Frisch, G. W. Trucks, H. B. Schlegel, G. E. Scuseria, 
 M. A. Robb, J. R. Cheeseman, G. Scalmani, V. Barone, B. Mennucci, 
 G. A. Petersson, H. Nakatsuji, M. Caricato, X. Li, H. P. Hratchian, 
 A. F. Izmaylov, J. Bloino, G. Zheng, J. L. Sonnenberg, M. Hada, 
 M. Ehara, K. Toyota, R. Fukuda, J. Hasegawa, M. Ishida, T. Nakajima, 
 Y. Honda, O. Kitao, H. Nakai, T. Vreven, J. A. Montgomery, Jr., 
 J. E. Peralta, F. Ogliaro, M. Bearpark, J. J. Heyd, E. Brothers, 
 K. N. Kudin, V. N. Staroverov, T. Keith, R. Kobayashi, J. Normand, 
 K. Raghavachari, A. Rendell, J. C. Burant, S. S. Iyengar, J. Tomasi, 
 M. Cossi, N. Rega, J. M. Millam, M. Klene, J. E. Knox, J. B. Cross, 
 V. Bakken, C. Adamo, J. Jaramillo, R. Gomperts, R. E. Stratmann, 
 O. Yazyev, A. J. Austin, R. Cammi, C. Pomelli, J. W. Ochterski, 
 R. L. Martin, K. Morokuma, V. G. Zakrzewski, G. A. Voth, 
 P. Salvador, J. J. Dannenberg, S. Dapprich, A. D. Daniels, 
 O. Farkas, J. B. Foresman, J. V. Ortiz, J. Cioslowski, 
 and D. J. Fox, Gaussian, Inc., Wallingford CT, 2013.
 
 ******************************************
 Gaussian 09:  IA32W-G09RevD.01 24-Apr-2013
                02-Dec-2023 
 ******************************************
 ------------------------
 # opt=cartesian HF 6-31+
 ------------------------
 1/10=7,18=10,38=1/1,3;
 2/12=2,17=6,18=5,29=2,40=1/2;
 3/5=1,6=6,7=10,11=9,16=1,25=1,30=1,71=1/1,2,3;
 4//1;
 5/5=2,38=5/2;
 6/7=2,8=2,9=2,10=2,28=1/1;
 7/7=1,29=1/1,2,3,16;
 1/10=7,18=10/3(2);
 2/29=1/2;
 99/12=1/99;
 2/29=1/2;
 3/5=1,6=6,7=10,11=9,16=1,25=1,30=1,71=1/1,2,3;
 4/5=5,16=3,69=1/1;
 5/5=2,38=5/2;
 7/7=1/1,2,3,16;
 1/18=10/3(-5);
 2/29=1/2;
 6/7=2,8=2,9=2,10=2,19=2,28=1/1;
 99/9=1,12=1/99;
 -------
 THYMINE
 -------
 Symbolic Z-matrix:
 Charge =  0 Multiplicity = 1
 8                     5.863    -0.052     1.593 
 8                     9.049    -2.406     3.824 
 7                     7.527     1.098     2.646 
 7                     7.471    -1.199     2.731 
 6                     6.899    -0.049     2.282 
 6                     8.636    -1.298     3.502 
 6                     9.244    -0.029     3.864 
 6                     8.672     1.103     3.425 
 6                     10.489   -0.05      4.706 
 1                     7.12      1.757     2.368 
 1                     7.038    -1.914     2.456 
 1                     9.037     1.986     3.62 
 1                     10.746    0.802     4.951 
 1                     10.404   -0.63      5.531 
 1                     11.271   -0.47      4.181 
 

 GradGradGradGradGradGradGradGradGradGradGradGradGradGradGradGradGradGrad
 Berny optimization.
 Initialization pass.
 No Z-matrix variables, so optimization will use Cartesian coordinates.
 Trust Radius=3.00D-01 FncErr=1.00D-07 GrdErr=1.00D-07
 Number of steps in this run=     55 maximum allowed number of steps=    100.
 GradGradGradGradGradGradGradGradGradGradGradGradGradGradGradGradGradGrad

 ---------------------------------------------------------------------------------------------------
                            Z-MATRIX (ANGSTROMS AND DEGREES)
   CD    Cent   Atom    N1       Length/X        N2       Alpha/Y        N3        Beta/Z          J
 ---------------------------------------------------------------------------------------------------
      1      1  O        0   5.863000         -0.052000          1.593000
      2      2  O        0   9.049000         -2.406000          3.824000
      3      3  N        0   7.527000          1.098000          2.646000
      4      4  N        0   7.471000         -1.199000          2.731000
      5      5  C        0   6.899000         -0.049000          2.282000
      6      6  C        0   8.636000         -1.298000          3.502000
      7      7  C        0   9.244000         -0.029000          3.864000
      8      8  C        0   8.672000          1.103000          3.425000
      9      9  C        0  10.489000         -0.050000          4.706000
     10     10  H        0   7.120000          1.757000          2.368000
     11     11  H        0   7.038000         -1.914000          2.456000
     12     12  H        0   9.037000          1.986000          3.620000
     13     13  H        0  10.746000          0.802000          4.951000
     14     14  H        0  10.404000         -0.630000          5.531000
     15     15  H        0  11.271000         -0.470000          4.181000
 ---------------------------------------------------------------------------------------------------
                         Z-Matrix orientation:                         
 ---------------------------------------------------------------------
 Center     Atomic      Atomic             Coordinates (Angstroms)
 Number     Number       Type             X           Y           Z
 ---------------------------------------------------------------------
      1          8           0        5.863000   -0.052000    1.593000
      2          8           0        9.049000   -2.406000    3.824000
      3          7           0        7.527000    1.098000    2.646000
      4          7           0        7.471000   -1.199000    2.731000
      5          6           0        6.899000   -0.049000    2.282000
      6          6           0        8.636000   -1.298000    3.502000
      7          6           0        9.244000   -0.029000    3.864000
      8          6           0        8.672000    1.103000    3.425000
      9          6           0       10.489000   -0.050000    4.706000
     10          1           0        7.120000    1.757000    2.368000
     11          1           0        7.038000   -1.914000    2.456000
     12          1           0        9.037000    1.986000    3.620000
     13          1           0       10.746000    0.802000    4.951000
     14          1           0       10.404000   -0.630000    5.531000
     15          1           0       11.271000   -0.470000    4.181000
 ---------------------------------------------------------------------
                    Distance matrix (angstroms):
                    1          2          3          4          5
     1  O    0.000000
     2  O    4.546347   0.000000
     3  N    2.280396   3.997772   0.000000
     4  N    2.279543   2.267506   2.299254   0.000000
     5  C    1.244197   3.543404   1.357383   1.360619   0.000000
     6  C    3.589753   1.225527   2.775506   1.400524   2.462838
     7  C    4.072976   2.385321   2.387832   2.407513   2.828807
     8  C    3.546932   3.551677   1.384879   2.687609   2.403556
     9  C    5.575899   2.898665   3.786152   3.785386   4.331729
    10  H    2.335199   4.813683   0.822930   2.998817   1.821503
    11  H    2.364834   2.481453   3.057346   0.879965   1.878250
    12  H    4.282108   4.396752   2.004325   3.658812   3.240758
    13  H    5.987418   3.800158   3.970214   4.433737   4.758904
    14  H    6.038428   2.811414   4.425645   4.094661   4.814415
    15  H    6.009903   2.968641   4.339630   4.132063   4.785167
                    6          7          8          9         10
     6  C    0.000000
     7  C    1.452952   0.000000
     8  C    2.402504   1.342136   0.000000
     9  C    2.537859   1.503140   2.504368   0.000000
    10  H    3.594056   3.152648   1.988384   4.481256   0.000000
    11  H    2.006782   3.225233   3.565278   4.521769   3.672970
    12  H    3.310496   2.040248   0.975161   2.726352   2.301051
    13  H    3.310846   2.031781   2.592442   0.923027   4.553218
    14  H    2.772885   2.117945   3.230843   1.012052   5.146552
    15  H    2.844266   2.098499   3.130602   1.031285   5.047504
                   11         12         13         14         15
    11  H    0.000000
    12  H    4.534413   0.000000
    13  H    5.229813   2.468623   0.000000
    14  H    4.736479   3.516257   1.582399   0.000000
    15  H    4.793647   3.367108   1.576867   1.612386   0.000000
 Stoichiometry    C5H6N2O2
 Framework group  C1[X(C5H6N2O2)]
 Deg. of freedom    39
 Full point group                 C1      NOp   1
 Largest Abelian subgroup         C1      NOp   1
 Largest concise Abelian subgroup C1      NOp   1
                         Standard orientation:                         
 ---------------------------------------------------------------------
 Center     Atomic      Atomic             Coordinates (Angstroms)
 Number     Number       Type             X           Y           Z
 ---------------------------------------------------------------------
      1          8           0       -2.864877    0.225429   -0.001737
      2          8           0        1.366461    1.888257    0.005848
      3          7           0       -1.119724   -1.242408    0.008244
      4          7           0       -0.729592    1.023438   -0.009370
      5          6           0       -1.639196    0.011629    0.002855
      6          6           0        0.663929    0.884087    0.002690
      7          6           0        1.145347   -0.486764   -0.005860
      8          6           0        0.244329   -1.481488   -0.001275
      9          6           0        2.630215   -0.720363   -0.011063
     10          1           0       -1.717010   -1.808153   -0.011656
     11          1           0       -1.113908    1.814930    0.004079
     12          1           0        0.500466   -2.422366    0.007680
     13          1           0        2.831266   -1.616567   -0.102579
     14          1           0        3.116145   -0.188531   -0.721892
     15          1           0        3.047847   -0.398627    0.875288
 ---------------------------------------------------------------------
 Rotational constants (GHZ):      3.2563881      1.4193901      0.9936201
 Standard basis: 6-31+G (6D, 7F)
 There are   129 symmetry adapted cartesian basis functions of A   symmetry.
 There are   129 symmetry adapted basis functions of A   symmetry.
   129 basis functions,   258 primitive gaussians,   129 cartesian basis functions
    33 alpha electrons       33 beta electrons
       nuclear repulsion energy       444.7075067847 Hartrees.
 NAtoms=   15 NActive=   15 NUniq=   15 SFac= 1.00D+00 NAtFMM=   60 NAOKFM=F Big=F
 Integral buffers will be    262144 words long.
 Raffenetti 1 integral format.
 Two-electron integral symmetry is turned on.
 One-electron integrals computed using PRISM.
 NBasis=   129 RedAO= T EigKep=  1.27D-05  NBF=   129
 NBsUse=   129 1.00D-06 EigRej= -1.00D+00 NBFU=   129
 ExpMin= 4.38D-02 ExpMax= 5.48D+03 ExpMxC= 8.25D+02 IAcc=2 IRadAn=         4 AccDes= 0.00D+00
 Harris functional with IExCor=  205 and IRadAn=       4 diagonalized for initial guess.
 HarFok:  IExCor=  205 AccDes= 0.00D+00 IRadAn=         4 IDoV= 1 UseB2=F ITyADJ=14
 ICtDFT=  3500011 ScaDFX=  1.000000  1.000000  1.000000  1.000000
 FoFCou: FMM=F IPFlag=           0 FMFlag=      100000 FMFlg1=           0
         NFxFlg=           0 DoJE=T BraDBF=F KetDBF=T FulRan=T
         wScrn=  0.000000 ICntrl=     500 IOpCl=  0 I1Cent=   200000004 NGrid=           0
         NMat0=    1 NMatS0=      1 NMatT0=    0 NMatD0=    1 NMtDS0=    0 NMtDT0=    0
 Petite list used in FoFCou.
 Requested convergence on RMS density matrix=1.00D-08 within 128 cycles.
 Requested convergence on MAX density matrix=1.00D-06.
 Requested convergence on             energy=1.00D-06.
 No special actions if energy rises.
 Initial convergence to 1.0D-05 achieved.  Increase integral accuracy.
 SCF Done:  E(RHF) =  -451.216722955     A.U. after   17 cycles
            NFock= 17  Conv=0.59D-08     -V/T= 1.9968

 **********************************************************************

            Population analysis using the SCF density.

 **********************************************************************

 Orbital symmetries:
       Occupied  (A) (A) (A) (A) (A) (A) (A) (A) (A) (A) (A) (A)
                 (A) (A) (A) (A) (A) (A) (A) (A) (A) (A) (A) (A)
                 (A) (A) (A) (A) (A) (A) (A) (A) (A)
       Virtual   (A) (A) (A) (A) (A) (A) (A) (A) (A) (A) (A) (A)
                 (A) (A) (A) (A) (A) (A) (A) (A) (A) (A) (A) (A)
                 (A) (A) (A) (A) (A) (A) (A) (A) (A) (A) (A) (A)
                 (A) (A) (A) (A) (A) (A) (A) (A) (A) (A) (A) (A)
                 (A) (A) (A) (A) (A) (A) (A) (A) (A) (A) (A) (A)
                 (A) (A) (A) (A) (A) (A) (A) (A) (A) (A) (A) (A)
                 (A) (A) (A) (A) (A) (A) (A) (A) (A) (A) (A) (A)
                 (A) (A) (A) (A) (A) (A) (A) (A) (A) (A) (A) (A)
 The electronic state is 1-A.
 Alpha  occ. eigenvalues --  -20.57072 -20.56014 -15.64169 -15.63434 -11.44207
 Alpha  occ. eigenvalues --  -11.41091 -11.34293 -11.28688 -11.21722  -1.46399
 Alpha  occ. eigenvalues --   -1.42741  -1.33884  -1.29042  -1.14603  -1.01865
 Alpha  occ. eigenvalues --   -0.96776  -0.93957  -0.83384  -0.79507  -0.76623
 Alpha  occ. eigenvalues --   -0.70452  -0.68740  -0.64415  -0.63247  -0.61110
 Alpha  occ. eigenvalues --   -0.59832  -0.58679  -0.57573  -0.51971  -0.48134
 Alpha  occ. eigenvalues --   -0.45473  -0.43556  -0.36596
 Alpha virt. eigenvalues --    0.04546   0.06199   0.07009   0.07634   0.08942
 Alpha virt. eigenvalues --    0.09423   0.10772   0.11283   0.12380   0.13534
 Alpha virt. eigenvalues --    0.13689   0.14587   0.14852   0.16934   0.17353
 Alpha virt. eigenvalues --    0.18321   0.19714   0.21157   0.21545   0.23519
 Alpha virt. eigenvalues --    0.24504   0.25495   0.26278   0.26809   0.27948
 Alpha virt. eigenvalues --    0.28485   0.30196   0.31048   0.33304   0.34577
 Alpha virt. eigenvalues --    0.36285   0.37049   0.38046   0.38530   0.39459
 Alpha virt. eigenvalues --    0.39493   0.40958   0.41498   0.41751   0.43119
 Alpha virt. eigenvalues --    0.44155   0.44785   0.45818   0.48489   0.48861
 Alpha virt. eigenvalues --    0.51965   0.53028   0.55934   0.57409   0.59952
 Alpha virt. eigenvalues --    0.60920   0.71902   0.72678   0.77295   0.85275
 Alpha virt. eigenvalues --    0.90220   0.91078   0.91999   0.92869   0.93539
 Alpha virt. eigenvalues --    0.98569   1.02009   1.02313   1.05241   1.09672
 Alpha virt. eigenvalues --    1.15396   1.15951   1.17887   1.20486   1.24156
 Alpha virt. eigenvalues --    1.26776   1.30503   1.32882   1.35970   1.37974
 Alpha virt. eigenvalues --    1.45552   1.48234   1.49874   1.54552   1.55466
 Alpha virt. eigenvalues --    1.56887   1.58439   1.58760   1.61149   1.66329
 Alpha virt. eigenvalues --    1.68234   1.69793   1.70254   1.72797   1.74311
 Alpha virt. eigenvalues --    1.84796   1.88262   1.97083   2.08454   2.48768
 Alpha virt. eigenvalues --    2.59388
          Condensed to atoms (all electrons):
               1          2          3          4          5          6
     1  O    8.570934   0.003010  -0.209988  -0.175155   0.342030   0.061198
     2  O    0.003010   8.565267   0.001530  -0.212958   0.062875   0.303958
     3  N   -0.209988   0.001530   8.395003  -0.551404  -0.023837   0.147523
     4  N   -0.175155  -0.212958  -0.551404   9.226525  -0.269721  -0.348950
     5  C    0.342030   0.062875  -0.023837  -0.269721   5.525507  -0.410354
     6  C    0.061198   0.303958   0.147523  -0.348950  -0.410354   8.997960
     7  C   -0.078229  -0.069503   0.268625  -0.806879   0.448798  -1.952420
     8  C    0.101803  -0.086868  -0.641972   0.640391  -0.500355  -0.995173
     9  C   -0.003388   0.065401   0.068903   0.014375  -0.049195  -0.195936
    10  H   -0.000566  -0.000069   0.348106   0.020131   0.002598  -0.017408
    11  H   -0.000693  -0.005170   0.014238   0.338384  -0.003809  -0.016187
    12  H   -0.000290  -0.000524  -0.059669   0.001520  -0.001792   0.013562
    13  H   -0.000008   0.002412  -0.000135  -0.000603  -0.000516  -0.015161
    14  H    0.000001  -0.003539   0.000709   0.000042   0.000468   0.036890
    15  H   -0.000002  -0.003375   0.000828   0.000152   0.000784   0.019908
               7          8          9         10         11         12
     1  O   -0.078229   0.101803  -0.003388  -0.000566  -0.000693  -0.000290
     2  O   -0.069503  -0.086868   0.065401  -0.000069  -0.005170  -0.000524
     3  N    0.268625  -0.641972   0.068903   0.348106   0.014238  -0.059669
     4  N   -0.806879   0.640391   0.014375   0.020131   0.338384   0.001520
     5  C    0.448798  -0.500355  -0.049195   0.002598  -0.003809  -0.001792
     6  C   -1.952420  -0.995173  -0.195936  -0.017408  -0.016187   0.013562
     7  C   10.341126  -2.447694  -0.440806  -0.002274   0.016719   0.008654
     8  C   -2.447694  10.167344  -0.418626   0.003406  -0.026424   0.366645
     9  C   -0.440806  -0.418626   6.515189   0.001477   0.003616   0.014131
    10  H   -0.002274   0.003406   0.001477   0.276076  -0.000001  -0.002029
    11  H    0.016719  -0.026424   0.003616  -0.000001   0.232403  -0.000001
    12  H    0.008654   0.366645   0.014131  -0.002029  -0.000001   0.427344
    13  H   -0.167628   0.024009   0.507261   0.000007   0.000000   0.000282
    14  H   -0.015776  -0.034613   0.379755   0.000000   0.000003   0.000070
    15  H    0.016927  -0.031135   0.355731   0.000001   0.000003   0.000018
              13         14         15
     1  O   -0.000008   0.000001  -0.000002
     2  O    0.002412  -0.003539  -0.003375
     3  N   -0.000135   0.000709   0.000828
     4  N   -0.000603   0.000042   0.000152
     5  C   -0.000516   0.000468   0.000784
     6  C   -0.015161   0.036890   0.019908
     7  C   -0.167628  -0.015776   0.016927
     8  C    0.024009  -0.034613  -0.031135
     9  C    0.507261   0.379755   0.355731
    10  H    0.000007   0.000000   0.000001
    11  H    0.000000   0.000003   0.000003
    12  H    0.000282   0.000070   0.000018
    13  H    0.541432  -0.032569  -0.036432
    14  H   -0.032569   0.475597  -0.035014
    15  H   -0.036432  -0.035014   0.488209
 Mulliken charges:
               1
     1  O   -0.610657
     2  O   -0.622446
     3  N   -0.758459
     4  N   -0.875849
     5  C    0.876519
     6  C    0.370590
     7  C    0.880361
     8  C   -0.120739
     9  C   -0.817886
    10  H    0.370545
    11  H    0.446920
    12  H    0.232079
    13  H    0.177650
    14  H    0.227976
    15  H    0.223398
 Sum of Mulliken charges =   0.00000
 Mulliken charges with hydrogens summed into heavy atoms:
               1
     1  O   -0.610657
     2  O   -0.622446
     3  N   -0.387915
     4  N   -0.428929
     5  C    0.876519
     6  C    0.370590
     7  C    0.880361
     8  C    0.111340
     9  C   -0.188863
 Electronic spatial extent (au):  <R**2>=           1123.2755
 Charge=              0.0000 electrons
 Dipole moment (field-independent basis, Debye):
    X=              2.1631    Y=             -5.2872    Z=              0.0165  Tot=              5.7126
 Quadrupole moment (field-independent basis, Debye-Ang):
   XX=            -67.1551   YY=            -50.1734   ZZ=            -53.1279
   XY=             -4.6201   XZ=             -0.0072   YZ=              0.0644
 Traceless Quadrupole moment (field-independent basis, Debye-Ang):
   XX=            -10.3363   YY=              6.6454   ZZ=              3.6909
   XY=             -4.6201   XZ=             -0.0072   YZ=              0.0644
 Octapole moment (field-independent basis, Debye-Ang**2):
  XXX=             57.2181  YYY=            -26.0388  ZZZ=              0.1824  XYY=            -22.6494
  XXY=            -19.4569  XXZ=             -0.2762  XZZ=             -1.3341  YZZ=              2.8294
  YYZ=             -0.2010  XYZ=             -0.3965
 Hexadecapole moment (field-independent basis, Debye-Ang**3):
 XXXX=          -1099.6804 YYYY=           -405.0332 ZZZZ=            -57.5947 XXXY=              8.9924
 XXXZ=             -0.9731 YYYX=            -26.2508 YYYZ=              0.3553 ZZZX=              0.4422
 ZZZY=             -0.0035 XXYY=           -228.7008 XXZZ=           -165.8287 YYZZ=            -84.0396
 XXYZ=             -0.1450 YYXZ=             -0.2241 ZZXY=              2.9187
 N-N= 4.447075067847D+02 E-N=-1.947737485223D+03  KE= 4.526739708850D+02
 Calling FoFJK, ICntrl=      2127 FMM=F ISym2X=0 I1Cent= 0 IOpClX= 0 NMat=1 NMatS=1 NMatT=0.
 ***** Axes restored to original set *****
 -------------------------------------------------------------------
 Center     Atomic                   Forces (Hartrees/Bohr)
 Number     Number              X              Y              Z
 -------------------------------------------------------------------
      1        8           0.018225052    0.001877520    0.011387709
      2        8           0.002077656    0.006458092    0.000342176
      3        7           0.139057482   -0.255915545    0.097295952
      4        7           0.084704900    0.143663503    0.049489793
      5        6          -0.017754760   -0.005440479   -0.009502281
      6        6          -0.015880030   -0.014100409   -0.007101166
      7        6           0.000579885    0.008164826    0.003416140
      8        6          -0.036580683   -0.087459624   -0.020968977
      9        6          -0.063498551   -0.116482030   -0.076425194
     10        1          -0.136946394    0.261218037   -0.095924670
     11        1          -0.074912143   -0.148139016   -0.045681602
     12        1           0.036504677    0.088230364    0.021034253
     13        1           0.046734160    0.170626335    0.049148921
     14        1          -0.014395571   -0.034168750    0.050337067
     15        1           0.032084320   -0.018532824   -0.026848121
 -------------------------------------------------------------------
 Cartesian Forces:  Max     0.261218037 RMS     0.086160541

 GradGradGradGradGradGradGradGradGradGradGradGradGradGradGradGradGradGrad
 Berny optimization.
 Search for a local minimum.
 Step number   1 out of a maximum of   55
 All quantities printed in internal units (Hartrees-Bohrs-Radians)
 Second derivative matrix not updated -- first step.
 ITU=  0
     Eigenvalues ---    0.00500   0.00548   0.01568   0.01638   0.02838
     Eigenvalues ---    0.03346   0.03862   0.07166   0.07530   0.08048
     Eigenvalues ---    0.08481   0.09608   0.10973   0.11431   0.12896
     Eigenvalues ---    0.13741   0.14841   0.15429   0.16880   0.22611
     Eigenvalues ---    0.27024   0.29550   0.33385   0.39628   0.46946
     Eigenvalues ---    0.47053   0.65832   0.84307   1.01011   1.05239
     Eigenvalues ---    1.10313   1.39781   1.51268   1.61918   1.64114
     Eigenvalues ---    1.90204   2.16686   2.22165   2.36322
 RFO step:  Lambda=-1.85996262D-01 EMin= 5.00157256D-03
 Linear search not attempted -- first point.
 Maximum step size (   0.300) exceeded in Quadratic search.
    -- Step size scaled by   0.770
 TrRot= -0.000900 -0.003358  0.004680  2.813456 -0.000306 -2.813668
 Variable       Old X    -DE/DX   Delta X   Delta X   Delta X     New X
                                 (Linear)    (Quad)   (Total)
    X1       11.07946   0.01823   0.00000   0.00954   0.00949  11.08896
    Y1       -0.09827   0.00188   0.00000   0.00708   0.00108  -0.09719
    Z1        3.01033   0.01139   0.00000   0.00229   0.00374   3.01408
    X2       17.10013   0.00208   0.00000   0.00435   0.00459  17.10472
    Y2       -4.54668   0.00646   0.00000   0.01101   0.00331  -4.54337
    Z2        7.22631   0.00034   0.00000   0.00248   0.00176   7.22807
    X3       14.22397   0.13906   0.00000   0.01202   0.01300  14.23697
    Y3        2.07492  -0.25592   0.00000  -0.04575  -0.05262   2.02230
    Z3        5.00022   0.09730   0.00000   0.01131   0.01206   5.01227
    X4       14.11814   0.08470   0.00000   0.01470   0.01482  14.13297
    Y4       -2.26578   0.14366   0.00000   0.02319   0.01632  -2.24946
    Z4        5.16084   0.04949   0.00000   0.00514   0.00550   5.16634
    X5       13.03722  -0.01775   0.00000  -0.00787  -0.00754  13.02968
    Y5       -0.09260  -0.00544   0.00000  -0.00890  -0.01544  -0.10804
    Z5        4.31236  -0.00950   0.00000  -0.00231  -0.00142   4.31093
    X6       16.31967  -0.01588   0.00000  -0.01068  -0.01018  16.30950
    Y6       -2.45286  -0.01410   0.00000  -0.00035  -0.00781  -2.46068
    Z6        6.61782  -0.00710   0.00000   0.00026  -0.00004   6.61778
    X7       17.46863   0.00058   0.00000  -0.00448  -0.00327  17.46535
    Y7       -0.05480   0.00816   0.00000  -0.00863  -0.01641  -0.07121
    Z7        7.30190   0.00342   0.00000   0.00163   0.00124   7.30314
    X8       16.38771  -0.03658   0.00000  -0.00573  -0.00432  16.38339
    Y8        2.08437  -0.08746   0.00000  -0.03196  -0.03943   2.04494
    Z8        6.47231  -0.02097   0.00000  -0.00050  -0.00037   6.47194
    X9       19.82134  -0.06350   0.00000  -0.00924  -0.00759  19.81374
    Y9       -0.09449  -0.11648   0.00000  -0.02450  -0.03293  -0.12742
    Z9        8.89305  -0.07643   0.00000  -0.02445  -0.02553   8.86752
   X10       13.45485  -0.13695   0.00000  -0.04299  -0.04186  13.41299
   Y10        3.32025   0.26122   0.00000   0.16194   0.15531   3.47555
   Z10        4.47487  -0.09592   0.00000  -0.03582  -0.03469   4.44019
   X11       13.29989  -0.07491   0.00000  -0.03175  -0.03210  13.26780
   Y11       -3.61694  -0.14814   0.00000  -0.11629  -0.12291  -3.73985
   Z11        4.64117  -0.04568   0.00000  -0.01695  -0.01649   4.62468
   X12       17.07746   0.03650   0.00000   0.02911   0.03101  17.10847
   Y12        3.75300   0.08823   0.00000   0.07628   0.06862   3.82162
   Z12        6.84081   0.02103   0.00000   0.02004   0.02014   6.86095
   X13       20.30700   0.04673   0.00000   0.02515   0.02732  20.33432
   Y13        1.51556   0.17063   0.00000   0.14214   0.13355   1.64911
   Z13        9.35603   0.04915   0.00000   0.03361   0.03255   9.38859
   X14       19.66071  -0.01440   0.00000  -0.03642  -0.03454  19.62617
   Y14       -1.19053  -0.03417   0.00000  -0.04273  -0.05128  -1.24181
   Z14       10.45208   0.05034   0.00000   0.05192   0.05078  10.50286
   X15       21.29910   0.03208   0.00000   0.03999   0.04117  21.34027
   Y15       -0.88817  -0.01853   0.00000  -0.03070  -0.03935  -0.92752
   Z15        7.90094  -0.02685   0.00000  -0.04764  -0.04924   7.85170
         Item               Value     Threshold  Converged?
 Maximum Force            0.261218     0.000450     NO 
 RMS     Force            0.086161     0.000300     NO 
 Maximum Displacement     0.155306     0.001800     NO 
 RMS     Displacement     0.044503     0.001200     NO 
 Predicted change in Energy=-9.646058D-02
 GradGradGradGradGradGradGradGradGradGradGradGradGradGradGradGradGradGrad

                          Input orientation:                          
 ---------------------------------------------------------------------
 Center     Atomic      Atomic             Coordinates (Angstroms)
 Number     Number       Type             X           Y           Z
 ---------------------------------------------------------------------
      1          8           0        5.868023   -0.051429    1.594981
      2          8           0        9.051428   -2.404247    3.824929
      3          7           0        7.533878    1.070154    2.652382
      4          7           0        7.478843   -1.190362    2.733911
      5          6           0        6.895008   -0.057173    2.281248
      6          6           0        8.630615   -1.302135    3.501981
      7          6           0        9.242268   -0.037682    3.864655
      8          6           0        8.669715    1.082134    3.424804
      9          6           0       10.484981   -0.067426    4.692489
     10          1           0        7.097848    1.839184    2.349645
     11          1           0        7.021015   -1.979042    2.447275
     12          1           0        9.053410    2.022313    3.630658
     13          1           0       10.760457    0.872669    4.968226
     14          1           0       10.385724   -0.657135    5.557873
     15          1           0       11.292787   -0.490824    4.154942
 ---------------------------------------------------------------------
                    Distance matrix (angstroms):
                    1          2          3          4          5
     1  O    0.000000
     2  O    4.543401   0.000000
     3  N    2.269608   3.968537   0.000000
     4  N    2.277953   2.266465   2.262655   0.000000
     5  C    1.235190   3.541448   1.347873   1.352732   0.000000
     6  C    3.582294   1.223123   2.748164   1.388885   2.460173
     7  C    4.066588   2.374579   2.369705   2.391008   2.831463
     8  C    3.533086   3.529966   1.373647   2.657019   2.399026
     9  C    5.559777   2.875494   3.763660   3.759505   4.324592
    10  H    2.378320   4.898944   0.934441   3.077494   1.908401
    11  H    2.402392   2.490243   3.098822   0.955920   1.933138
    12  H    4.311738   4.430821   2.042696   3.688454   3.286924
    13  H    6.014039   3.868603   3.976550   4.474065   4.798558
    14  H    6.039952   2.799257   4.422492   4.087671   4.825073
    15  H    6.014527   2.965432   4.338633   4.129752   4.799921
                    6          7          8          9         10
     6  C    0.000000
     7  C    1.450687   0.000000
     8  C    2.385838   1.332394   0.000000
     9  C    2.525963   1.493497   2.494736   0.000000
    10  H    3.680372   3.227448   2.049356   4.538365   0.000000
    11  H    2.039956   3.272890   3.611728   4.549102   3.820247
    12  H    3.353694   2.081827   1.036115   2.746615   2.344942
    13  H    3.378739   2.086027   2.607150   1.017692   4.604979
    14  H    2.779051   2.134995   3.243414   1.051902   5.228238
    15  H    2.858626   2.119961   3.144489   1.058666   5.126944
                   11         12         13         14         15
    11  H    0.000000
    12  H    4.641322   0.000000
    13  H    5.335811   2.454543   0.000000
    14  H    4.769122   3.559307   1.681788   0.000000
    15  H    4.835179   3.406691   1.674491   1.678880   0.000000
 Stoichiometry    C5H6N2O2
 Framework group  C1[X(C5H6N2O2)]
 Deg. of freedom    39
 Full point group                 C1      NOp   1
 Largest Abelian subgroup         C1      NOp   1
 Largest concise Abelian subgroup C1      NOp   1
                         Standard orientation:                         
 ---------------------------------------------------------------------
 Center     Atomic      Atomic             Coordinates (Angstroms)
 Number     Number       Type             X           Y           Z
 ---------------------------------------------------------------------
      1          8           0       -2.861245    0.221681    0.000388
      2          8           0        1.369235    1.878637    0.005251
      3          7           0       -1.109098   -1.220903    0.007677
      4          7           0       -0.723548    1.008609   -0.007813
      5          6           0       -1.643196    0.016622    0.001868
      6          6           0        0.659580    0.882454   -0.000980
      7          6           0        1.143435   -0.485143   -0.008305
      8          6           0        0.242355   -1.466619   -0.002499
      9          6           0        2.619799   -0.710664   -0.003530
     10          1           0       -1.763200   -1.887954   -0.011597
     11          1           0       -1.121007    1.877895    0.004487
     12          1           0        0.508845   -2.467845    0.005502
     13          1           0        2.836760   -1.698834   -0.113730
     14          1           0        3.118380   -0.170103   -0.755666
     15          1           0        3.052978   -0.389555    0.907524
 ---------------------------------------------------------------------
 Rotational constants (GHZ):      3.2860578      1.4230590      0.9986016
 Standard basis: 6-31+G (6D, 7F)
 There are   129 symmetry adapted cartesian basis functions of A   symmetry.
 There are   129 symmetry adapted basis functions of A   symmetry.
   129 basis functions,   258 primitive gaussians,   129 cartesian basis functions
    33 alpha electrons       33 beta electrons
       nuclear repulsion energy       444.3243226843 Hartrees.
 NAtoms=   15 NActive=   15 NUniq=   15 SFac= 1.00D+00 NAtFMM=   60 NAOKFM=F Big=F
 Integral buffers will be    262144 words long.
 Raffenetti 1 integral format.
 Two-electron integral symmetry is turned on.
 One-electron integrals computed using PRISM.
 NBasis=   129 RedAO= T EigKep=  1.17D-05  NBF=   129
 NBsUse=   129 1.00D-06 EigRej= -1.00D+00 NBFU=   129
 Initial guess from the checkpoint file:  "C:\G09W\Scratch\gxx.chk"
 B after Tr=     0.000000    0.000000    0.000000
         Rot=    1.000000    0.000062   -0.000019    0.000304 Ang=   0.04 deg.
 ExpMin= 4.38D-02 ExpMax= 5.48D+03 ExpMxC= 8.25D+02 IAcc=2 IRadAn=         4 AccDes= 0.00D+00
 Harris functional with IExCor=  205 and IRadAn=       4 diagonalized for initial guess.
 HarFok:  IExCor=  205 AccDes= 0.00D+00 IRadAn=         4 IDoV= 1 UseB2=F ITyADJ=14
 ICtDFT=  3500011 ScaDFX=  1.000000  1.000000  1.000000  1.000000
 FoFCou: FMM=F IPFlag=           0 FMFlag=      100000 FMFlg1=           0
         NFxFlg=           0 DoJE=T BraDBF=F KetDBF=T FulRan=T
         wScrn=  0.000000 ICntrl=     500 IOpCl=  0 I1Cent=   200000004 NGrid=           0
         NMat0=    1 NMatS0=      1 NMatT0=    0 NMatD0=    1 NMtDS0=    0 NMtDT0=    0
 Petite list used in FoFCou.
 Requested convergence on RMS density matrix=1.00D-08 within 128 cycles.
 Requested convergence on MAX density matrix=1.00D-06.
 Requested convergence on             energy=1.00D-06.
 No special actions if energy rises.
 Initial convergence to 1.0D-05 achieved.  Increase integral accuracy.
 SCF Done:  E(RHF) =  -451.302939217     A.U. after   15 cycles
            NFock= 15  Conv=0.30D-08     -V/T= 1.9984
 Calling FoFJK, ICntrl=      2127 FMM=F ISym2X=0 I1Cent= 0 IOpClX= 0 NMat=1 NMatS=1 NMatT=0.
 ***** Axes restored to original set *****
 -------------------------------------------------------------------
 Center     Atomic                   Forces (Hartrees/Bohr)
 Number     Number              X              Y              Z
 -------------------------------------------------------------------
      1        8           0.007555679   -0.000330337    0.004777000
      2        8           0.000819808    0.000063999    0.000307874
      3        7           0.021688467   -0.046854423    0.016639990
      4        7           0.017305303    0.023030962    0.008768127
      5        6          -0.010990062   -0.002453891   -0.006309418
      6        6          -0.007759147   -0.006425784   -0.003643266
      7        6           0.004167117   -0.000366993    0.004379485
      8        6          -0.007780140   -0.018484037   -0.005048668
      9        6          -0.014828440   -0.028581323   -0.021480681
     10        1          -0.024913145    0.067977403   -0.019118704
     11        1          -0.015824692   -0.044855040   -0.008473359
     12        1           0.010833657    0.026542409    0.006804096
     13        1           0.013669020    0.052458670    0.015679754
     14        1          -0.007923994   -0.013059790    0.019400335
     15        1           0.013980570   -0.008661824   -0.012682564
 -------------------------------------------------------------------
 Cartesian Forces:  Max     0.067977403 RMS     0.020660886

 GradGradGradGradGradGradGradGradGradGradGradGradGradGradGradGradGradGrad
 Berny optimization.
 Search for a local minimum.
 Step number   2 out of a maximum of   55
 All quantities printed in internal units (Hartrees-Bohrs-Radians)
 Update second derivatives using D2CorN and points    1    2
 DE= -8.62D-02 DEPred=-9.65D-02 R= 8.94D-01
 TightC=F SS=  1.41D+00  RLast= 2.99D-01 DXNew= 5.0454D-01 8.9560D-01
 Trust test= 8.94D-01 RLast= 2.99D-01 DXMaxT set to 5.05D-01
 ITU=  1  0
     Eigenvalues ---    0.00502   0.00549   0.01571   0.01643   0.02838
     Eigenvalues ---    0.03353   0.03883   0.07174   0.07535   0.08049
     Eigenvalues ---    0.08497   0.09605   0.10904   0.11402   0.12896
     Eigenvalues ---    0.13824   0.15036   0.15390   0.16871   0.22623
     Eigenvalues ---    0.28327   0.29598   0.33401   0.39689   0.47019
     Eigenvalues ---    0.47146   0.66439   0.84716   1.01807   1.05352
     Eigenvalues ---    1.10508   1.40423   1.51193   1.62268   1.64768
     Eigenvalues ---    1.92713   2.16637   2.23231   2.40187
 RFO step:  Lambda=-2.91501701D-02 EMin= 5.01642910D-03
 Quartic linear search produced a step of  0.59198.
 TrRot= -0.009482 -0.020317 -0.000024  0.678648  0.000409 -0.677481
 Variable       Old X    -DE/DX   Delta X   Delta X   Delta X     New X
                                 (Linear)    (Quad)   (Total)
    X1       11.08896   0.00756   0.00562  -0.00377  -0.00655  11.08240
    Y1       -0.09719  -0.00033   0.00064  -0.01665  -0.02261  -0.11980
    Z1        3.01408   0.00478   0.00222  -0.01412  -0.01544   2.99864
    X2       17.10472   0.00082   0.00272   0.00308   0.00393  17.10865
    Y2       -4.54337   0.00006   0.00196  -0.01607  -0.01260  -4.55596
    Z2        7.22807   0.00031   0.00104   0.00958   0.00632   7.23439
    X3       14.23697   0.02169   0.00769  -0.04123  -0.04388  14.19309
    Y3        2.02230  -0.04685  -0.03115   0.10709   0.07349   2.09578
    Z3        5.01227   0.01664   0.00714  -0.01378  -0.01173   5.00055
    X4       14.13297   0.01731   0.00877  -0.03944  -0.03578  14.09719
    Y4       -2.24946   0.02303   0.00966  -0.11356  -0.10644  -2.35589
    Z4        5.16634   0.00877   0.00326  -0.03137  -0.03202   5.13432
    X5       13.02968  -0.01099  -0.00447  -0.01721  -0.02965  13.00003
    Y5       -0.10804  -0.00245  -0.00914  -0.00755  -0.02072  -0.12876
    Z5        4.31093  -0.00631  -0.00084  -0.00560  -0.01058   4.30036
    X6       16.30950  -0.00776  -0.00602  -0.02558  -0.03608  16.27342
    Y6       -2.46068  -0.00643  -0.00463  -0.02811  -0.03236  -2.49304
    Z6        6.61778  -0.00364  -0.00002  -0.00799  -0.01258   6.60521
    X7       17.46535   0.00417  -0.00194   0.00583  -0.00320  17.46216
    Y7       -0.07121  -0.00037  -0.00971   0.01064   0.00288  -0.06833
    Z7        7.30314   0.00438   0.00073  -0.00154  -0.00638   7.29676
    X8       16.38339  -0.00778  -0.00256   0.00291  -0.00950  16.37388
    Y8        2.04494  -0.01848  -0.02334   0.05776   0.03489   2.07982
    Z8        6.47194  -0.00505  -0.00022   0.00824   0.00225   6.47419
    X9       19.81374  -0.01483  -0.00450   0.05177   0.04075  19.85449
    Y9       -0.12742  -0.02858  -0.01949   0.02003   0.00568  -0.12174
    Z9        8.86752  -0.02148  -0.01511   0.01028  -0.01115   8.85637
   X10       13.41299  -0.02491  -0.02478   0.08603   0.04882  13.46181
   Y10        3.47555   0.06798   0.09194   0.16406   0.25255   3.72810
   Z10        4.44019  -0.01912  -0.02053   0.03928   0.01347   4.45366
   X11       13.26780  -0.01582  -0.01900   0.05014   0.02781  13.29560
   Y11       -3.73985  -0.04486  -0.07276  -0.19321  -0.26957  -4.00942
   Z11        4.62468  -0.00847  -0.00976   0.04464   0.03165   4.65633
   X12       17.10847   0.01083   0.01836   0.02856   0.03505  17.14352
   Y12        3.82162   0.02654   0.04062   0.05237   0.09447   3.91609
   Z12        6.86095   0.00680   0.01192   0.03798   0.04341   6.90436
   X13       20.33432   0.01367   0.01617   0.04579   0.05341  20.38773
   Y13        1.64911   0.05246   0.07906   0.03897   0.12394   1.77304
   Z13        9.38859   0.01568   0.01927   0.02775   0.04005   9.42864
   X14       19.62617  -0.00792  -0.02044  -0.07998  -0.10505  19.52113
   Y14       -1.24181  -0.01306  -0.03036  -0.02299  -0.04816  -1.28996
   Z14       10.50286   0.01940   0.03006   0.01836   0.04251  10.54537
   X15       21.34027   0.01398   0.02437   0.04140   0.05993  21.40020
   Y15       -0.92752  -0.00866  -0.02330  -0.05879  -0.07542  -1.00295
   Z15        7.85170  -0.01268  -0.02915  -0.04405  -0.07979   7.77191
         Item               Value     Threshold  Converged?
 Maximum Force            0.067977     0.000450     NO 
 RMS     Force            0.020661     0.000300     NO 
 Maximum Displacement     0.269568     0.001800     NO 
 RMS     Displacement     0.071906     0.001200     NO 
 Predicted change in Energy=-4.672343D-03
 GradGradGradGradGradGradGradGradGradGradGradGradGradGradGradGradGradGrad

                          Input orientation:                          
 ---------------------------------------------------------------------
 Center     Atomic      Atomic             Coordinates (Angstroms)
 Number     Number       Type             X           Y           Z
 ---------------------------------------------------------------------
      1          8           0        5.864555   -0.063396    1.586813
      2          8           0        9.053506   -2.410912    3.828272
      3          7           0        7.510658    1.109041    2.646175
      4          7           0        7.459911   -1.246686    2.716965
      5          6           0        6.879319   -0.068139    2.275651
      6          6           0        8.611521   -1.319257    3.495325
      7          6           0        9.240575   -0.036160    3.861281
      8          6           0        8.664687    1.100595    3.425994
      9          6           0       10.506543   -0.064422    4.686589
     10          1           0        7.123684    1.972826    2.356776
     11          1           0        7.035730   -2.121691    2.464022
     12          1           0        9.071960    2.072304    3.653629
     13          1           0       10.788720    0.938254    4.989421
     14          1           0       10.330135   -0.682620    5.580370
     15          1           0       11.324498   -0.530737    4.112720
 ---------------------------------------------------------------------
                    Distance matrix (angstroms):
                    1          2          3          4          5
     1  O    0.000000
     2  O    4.550206   0.000000
     3  N    2.281779   4.020921   0.000000
     4  N    2.285296   2.264944   2.357337   0.000000
     5  C    1.226485   3.553351   1.386229   1.385935   0.000000
     6  C    3.572874   1.223893   2.798141   1.391876   2.460371
     7  C    4.070806   2.382338   2.404284   2.438360   2.844430
     8  C    3.546576   3.555797   1.392829   2.732020   2.424204
     9  C    5.581816   2.890335   3.809939   3.815643   4.355387
    10  H    2.514846   5.010656   0.989760   3.256999   2.057143
    11  H    2.525415   2.452804   3.270531   1.004761   2.068096
    12  H    4.372687   4.486654   2.092965   3.806801   3.359762
    13  H    6.068644   3.946662   4.033071   4.584647   4.864236
    14  H    6.022736   2.772476   4.446235   4.093342   4.817353
    15  H    6.034036   2.961988   4.402840   4.170821   4.832022
                    6          7          8          9         10
     6  C    0.000000
     7  C    1.475118   0.000000
     8  C    2.421429   1.346601   0.000000
     9  C    2.566092   1.511491   2.517697   0.000000
    10  H    3.787845   3.283411   2.068503   4.584991   0.000000
    11  H    2.047097   3.341126   3.736579   4.606377   4.096866
    12  H    3.426332   2.125364   1.077918   2.773199   2.342542
    13  H    3.474028   2.149170   2.642380   1.084753   4.629648
    14  H    2.776032   2.135490   3.254983   1.100969   5.265385
    15  H    2.891917   2.156516   3.194907   1.102645   5.195960
                   11         12         13         14         15
    11  H    0.000000
    12  H    4.811548   0.000000
    13  H    5.461304   2.453095   0.000000
    14  H    4.757695   3.589560   1.785148   0.000000
    15  H    4.862394   3.472825   1.792650   1.779276   0.000000
 Stoichiometry    C5H6N2O2
 Framework group  C1[X(C5H6N2O2)]
 Deg. of freedom    39
 Full point group                 C1      NOp   1
 Largest Abelian subgroup         C1      NOp   1
 Largest concise Abelian subgroup C1      NOp   1
                         Standard orientation:                         
 ---------------------------------------------------------------------
 Center     Atomic      Atomic             Coordinates (Angstroms)
 Number     Number       Type             X           Y           Z
 ---------------------------------------------------------------------
      1          8           0       -2.860985    0.222637    0.008164
      2          8           0        1.375497    1.882917    0.000093
      3          7           0       -1.128954   -1.262799    0.000355
      4          7           0       -0.735215    1.061420   -0.002873
      5          6           0       -1.651169    0.021305   -0.000508
      6          6           0        0.647184    0.899344   -0.007524
      7          6           0        1.147202   -0.488444   -0.007900
      8          6           0        0.245444   -1.488526   -0.006445
      9          6           0        2.641444   -0.715412    0.010368
     10          1           0       -1.749988   -2.033459   -0.004793
     11          1           0       -1.074151    2.007271    0.002859
     12          1           0        0.540334   -2.525320   -0.003976
     13          1           0        2.870581   -1.767617   -0.120211
     14          1           0        3.095386   -0.135798   -0.808239
     15          1           0        3.070300   -0.349449    0.957986
 ---------------------------------------------------------------------
 Rotational constants (GHZ):      3.1576021      1.4114126      0.9814841
 Standard basis: 6-31+G (6D, 7F)
 There are   129 symmetry adapted cartesian basis functions of A   symmetry.
 There are   129 symmetry adapted basis functions of A   symmetry.
   129 basis functions,   258 primitive gaussians,   129 cartesian basis functions
    33 alpha electrons       33 beta electrons
       nuclear repulsion energy       438.5459157224 Hartrees.
 NAtoms=   15 NActive=   15 NUniq=   15 SFac= 1.00D+00 NAtFMM=   60 NAOKFM=F Big=F
 Integral buffers will be    262144 words long.
 Raffenetti 1 integral format.
 Two-electron integral symmetry is turned on.
 One-electron integrals computed using PRISM.
 NBasis=   129 RedAO= T EigKep=  1.29D-05  NBF=   129
 NBsUse=   129 1.00D-06 EigRej= -1.00D+00 NBFU=   129
 Initial guess from the checkpoint file:  "C:\G09W\Scratch\gxx.chk"
 B after Tr=     0.000000    0.000000    0.000000
         Rot=    1.000000    0.000199   -0.000158   -0.000323 Ang=   0.05 deg.
 ExpMin= 4.38D-02 ExpMax= 5.48D+03 ExpMxC= 8.25D+02 IAcc=2 IRadAn=         4 AccDes= 0.00D+00
 Harris functional with IExCor=  205 and IRadAn=       4 diagonalized for initial guess.
 HarFok:  IExCor=  205 AccDes= 0.00D+00 IRadAn=         4 IDoV= 1 UseB2=F ITyADJ=14
 ICtDFT=  3500011 ScaDFX=  1.000000  1.000000  1.000000  1.000000
 FoFCou: FMM=F IPFlag=           0 FMFlag=      100000 FMFlg1=           0
         NFxFlg=           0 DoJE=T BraDBF=F KetDBF=T FulRan=T
         wScrn=  0.000000 ICntrl=     500 IOpCl=  0 I1Cent=   200000004 NGrid=           0
         NMat0=    1 NMatS0=      1 NMatT0=    0 NMatD0=    1 NMtDS0=    0 NMtDT0=    0
 Petite list used in FoFCou.
 Requested convergence on RMS density matrix=1.00D-08 within 128 cycles.
 Requested convergence on MAX density matrix=1.00D-06.
 Requested convergence on             energy=1.00D-06.
 No special actions if energy rises.
 Initial convergence to 1.0D-05 achieved.  Increase integral accuracy.
 SCF Done:  E(RHF) =  -451.313126186     A.U. after   15 cycles
            NFock= 15  Conv=0.93D-08     -V/T= 2.0004
 Calling FoFJK, ICntrl=      2127 FMM=F ISym2X=0 I1Cent= 0 IOpClX= 0 NMat=1 NMatS=1 NMatT=0.
 ***** Axes restored to original set *****
 -------------------------------------------------------------------
 Center     Atomic                   Forces (Hartrees/Bohr)
 Number     Number              X              Y              Z
 -------------------------------------------------------------------
      1        8           0.002119675   -0.000288957    0.002027868
      2        8          -0.000103819   -0.000073205    0.000731444
      3        7           0.013009973   -0.026639499    0.011525114
      4        7           0.008612652    0.019092934    0.005722414
      5        6          -0.008927617    0.002874366   -0.007656969
      6        6           0.002525669    0.001456077   -0.000640235
      7        6          -0.005236062    0.009543886   -0.005597901
      8        6           0.001885758   -0.006000463    0.000989300
      9        6          -0.004272891   -0.015566655   -0.000477108
     10        1          -0.006255832   -0.001420968   -0.004319686
     11        1          -0.000316834    0.010119249   -0.000508250
     12        1          -0.002132284   -0.004859647   -0.001175067
     13        1           0.001085263   -0.002833634   -0.000742882
     14        1           0.006128742    0.008032431   -0.008700816
     15        1          -0.008122391    0.006564084    0.008822775
 -------------------------------------------------------------------
 Cartesian Forces:  Max     0.026639499 RMS     0.007696614

 GradGradGradGradGradGradGradGradGradGradGradGradGradGradGradGradGradGrad
 Berny optimization.
 Search for a local minimum.
 Step number   3 out of a maximum of   55
 All quantities printed in internal units (Hartrees-Bohrs-Radians)
 Update second derivatives using D2CorN and points    2    3
 DE= -1.02D-02 DEPred=-4.67D-03 R= 2.18D+00
 TightC=F SS=  1.41D+00  RLast= 4.82D-01 DXNew= 8.4853D-01 1.4471D+00
 Trust test= 2.18D+00 RLast= 4.82D-01 DXMaxT set to 8.49D-01
 ITU=  1  1  0
     Eigenvalues ---    0.00505   0.00550   0.01557   0.01654   0.02837
     Eigenvalues ---    0.03357   0.03886   0.07185   0.07535   0.08089
     Eigenvalues ---    0.08519   0.09469   0.10523   0.11330   0.12891
     Eigenvalues ---    0.13819   0.15069   0.15543   0.16874   0.22366
     Eigenvalues ---    0.27223   0.29595   0.33389   0.39650   0.46857
     Eigenvalues ---    0.47075   0.66161   0.84628   1.01509   1.05264
     Eigenvalues ---    1.10207   1.40114   1.50992   1.62205   1.64507
     Eigenvalues ---    1.92140   2.16593   2.23110   2.39201
 RFO step:  Lambda=-2.55600285D-03 EMin= 5.05336787D-03
 Quartic linear search produced a step of -0.28932.
 TrRot= -0.003024  0.000221  0.004543 -0.753904  0.000518  0.753972
 Variable       Old X    -DE/DX   Delta X   Delta X   Delta X     New X
                                 (Linear)    (Quad)   (Total)
    X1       11.08240   0.00212   0.00190  -0.01845  -0.01844  11.06396
    Y1       -0.11980  -0.00029   0.00654  -0.00385   0.00261  -0.11720
    Z1        2.99864   0.00203   0.00447   0.00066   0.00545   3.00409
    X2       17.10865  -0.00010  -0.00114  -0.00417  -0.00529  17.10336
    Y2       -4.55596  -0.00007   0.00364   0.00729   0.00975  -4.54621
    Z2        7.23439   0.00073  -0.00183  -0.00036  -0.00571   7.22868
    X3       14.19309   0.01301   0.01270   0.00535   0.01677  14.20986
    Y3        2.09578  -0.02664  -0.02126  -0.03280  -0.05465   2.04113
    Z3        5.00055   0.01153   0.00339   0.00652   0.00982   5.01037
    X4       14.09719   0.00861   0.01035   0.01388   0.02330  14.12049
    Y4       -2.35589   0.01909   0.03079   0.03585   0.06600  -2.28989
    Z4        5.13432   0.00572   0.00927   0.00187   0.00954   5.14386
    X5       13.00003  -0.00893   0.00858  -0.01548  -0.00830  12.99173
    Y5       -0.12876   0.00287   0.00600   0.00168   0.00726  -0.12150
    Z5        4.30036  -0.00766   0.00306  -0.01280  -0.01014   4.29022
    X6       16.27342   0.00253   0.01044   0.01151   0.02158  16.29500
    Y6       -2.49304   0.00146   0.00936   0.01093   0.01929  -2.47375
    Z6        6.60521  -0.00064   0.00364  -0.00908  -0.00792   6.59729
    X7       17.46216  -0.00524   0.00093   0.00790   0.00855  17.47071
    Y7       -0.06833   0.00954  -0.00083  -0.00040  -0.00241  -0.07074
    Z7        7.29676  -0.00560   0.00184  -0.00555  -0.00578   7.29098
    X8       16.37388   0.00189   0.00275   0.00397   0.00600  16.37988
    Y8        2.07982  -0.00600  -0.01009  -0.01879  -0.02983   2.04999
    Z8        6.47419   0.00099  -0.00065  -0.00265  -0.00421   6.46998
    X9       19.85449  -0.00427  -0.01179  -0.00696  -0.01842  19.83607
    Y9       -0.12174  -0.01557  -0.00164  -0.01131  -0.01452  -0.13626
    Z9        8.85637  -0.00048   0.00323   0.00288   0.00312   8.85949
   X10       13.46181  -0.00626  -0.01413  -0.00104  -0.01676  13.44505
   Y10        3.72810  -0.00142  -0.07307  -0.01250  -0.08601   3.64209
   Z10        4.45366  -0.00432  -0.00390  -0.00070  -0.00384   4.44982
   X11       13.29560  -0.00032  -0.00805   0.00218  -0.00687  13.28873
   Y11       -4.00942   0.01012   0.07799   0.03017   0.10764  -3.90177
   Z11        4.65633  -0.00051  -0.00916   0.00575  -0.00526   4.65107
   X12       17.14352  -0.00213  -0.01014  -0.00423  -0.01506  17.12846
   Y12        3.91609  -0.00486  -0.02733  -0.00752  -0.03591   3.88018
   Z12        6.90436  -0.00118  -0.01256  -0.00026  -0.01337   6.89099
   X13       20.38773   0.00109  -0.01545   0.00383  -0.01121  20.37651
   Y13        1.77304  -0.00283  -0.03586   0.00727  -0.03031   1.74273
   Z13        9.42864  -0.00074  -0.01159   0.00149  -0.01263   9.41601
   X14       19.52113   0.00613   0.03039   0.00947   0.04091  19.56203
   Y14       -1.28996   0.00803   0.01393   0.01000   0.02175  -1.26821
   Z14       10.54537  -0.00870  -0.01230   0.01335  -0.00224  10.54314
   X15       21.40020  -0.00812  -0.01734   0.00059  -0.01675  21.38345
   Y15       -1.00295   0.00656   0.02182  -0.00140   0.01933  -0.98361
   Z15        7.77191   0.00882   0.02308   0.02395   0.04316   7.81508
         Item               Value     Threshold  Converged?
 Maximum Force            0.026639     0.000450     NO 
 RMS     Force            0.007697     0.000300     NO 
 Maximum Displacement     0.107641     0.001800     NO 
 RMS     Displacement     0.029269     0.001200     NO 
 Predicted change in Energy=-3.469720D-03
 GradGradGradGradGradGradGradGradGradGradGradGradGradGradGradGradGradGrad

                          Input orientation:                          
 ---------------------------------------------------------------------
 Center     Atomic      Atomic             Coordinates (Angstroms)
 Number     Number       Type             X           Y           Z
 ---------------------------------------------------------------------
      1          8           0        5.854797   -0.062018    1.589695
      2          8           0        9.050707   -2.405751    3.825251
      3          7           0        7.519533    1.080122    2.651373
      4          7           0        7.472241   -1.211760    2.722012
      5          6           0        6.874925   -0.064297    2.270284
      6          6           0        8.622942   -1.309050    3.491134
      7          6           0        9.245101   -0.037434    3.858220
      8          6           0        8.667860    1.084807    3.423764
      9          6           0       10.496797   -0.072105    4.688239
     10          1           0        7.114814    1.927312    2.354746
     11          1           0        7.032094   -2.064730    2.461240
     12          1           0        9.063988    2.053304    3.646556
     13          1           0       10.782786    0.922214    4.982737
     14          1           0       10.351781   -0.671108    5.579187
     15          1           0       11.315632   -0.520506    4.135562
 ---------------------------------------------------------------------
                    Distance matrix (angstroms):
                    1          2          3          4          5
     1  O    0.000000
     2  O    4.550234   0.000000
     3  N    2.281005   3.984193   0.000000
     4  N    2.284770   2.265900   2.293457   0.000000
     5  C    1.226323   3.554483   1.367641   1.370224   0.000000
     6  C    3.582344   1.223670   2.762400   1.387489   2.468896
     7  C    4.079335   2.376510   2.383904   2.411025   2.853068
     8  C    3.548568   3.534368   1.383931   2.682570   2.421894
     9  C    5.581150   2.877817   3.786892   3.783226   4.354827
    10  H    2.475960   4.968451   0.984640   3.180631   2.007782
    11  H    2.481224   2.460004   3.188078   0.994631   2.015663
    12  H    4.359377   4.462654   2.079139   3.748210   3.342208
    13  H    6.063540   3.926222   4.013605   4.541413   4.858187
    14  H    6.042342   2.788919   4.434020   4.092371   4.837932
    15  H    6.042546   2.963162   4.378949   4.153024   4.838105
                    6          7          8          9         10
     6  C    0.000000
     7  C    1.462478   0.000000
     8  C    2.395227   1.334686   0.000000
     9  C    2.544489   1.502289   2.506462   0.000000
    10  H    3.746982   3.264780   2.065083   4.569537   0.000000
    11  H    2.040228   3.310421   3.677196   4.575396   3.994319
    12  H    3.394717   2.109216   1.069832   2.766840   2.341779
    13  H    3.445047   2.133058   2.632442   1.075727   4.622833
    14  H    2.784927   2.141964   3.250335   1.083339   5.256117
    15  H    2.878831   2.144149   3.177166   1.084900   5.177837
                   11         12         13         14         15
    11  H    0.000000
    12  H    4.742549   0.000000
    13  H    5.417331   2.453368   0.000000
    14  H    4.762783   3.579930   1.755048   0.000000
    15  H    4.851462   3.454493   1.755867   1.742339   0.000000
 Stoichiometry    C5H6N2O2
 Framework group  C1[X(C5H6N2O2)]
 Deg. of freedom    39
 Full point group                 C1      NOp   1
 Largest Abelian subgroup         C1      NOp   1
 Largest concise Abelian subgroup C1      NOp   1
                         Standard orientation:                         
 ---------------------------------------------------------------------
 Center     Atomic      Atomic             Coordinates (Angstroms)
 Number     Number       Type             X           Y           Z
 ---------------------------------------------------------------------
      1          8           0       -2.868496    0.220233    0.001074
      2          8           0        1.368040    1.880471   -0.000788
      3          7           0       -1.113363   -1.236645    0.002200
      4          7           0       -0.729977    1.024537   -0.001907
      5          6           0       -1.659062    0.017410    0.001594
      6          6           0        0.650872    0.888990    0.000840
      7          6           0        1.149248   -0.485944   -0.003859
      8          6           0        0.250313   -1.472504   -0.002684
      9          6           0        2.635751   -0.703079    0.002111
     10          1           0       -1.749307   -1.988330   -0.005739
     11          1           0       -1.090942    1.951353    0.000668
     12          1           0        0.535044   -2.503749   -0.002195
     13          1           0        2.865827   -1.746907   -0.119029
     14          1           0        3.109551   -0.146862   -0.797740
     15          1           0        3.074124   -0.355619    0.931685
 ---------------------------------------------------------------------
 Rotational constants (GHZ):      3.2351732      1.4118088      0.9887727
 Standard basis: 6-31+G (6D, 7F)
 There are   129 symmetry adapted cartesian basis functions of A   symmetry.
 There are   129 symmetry adapted basis functions of A   symmetry.
   129 basis functions,   258 primitive gaussians,   129 cartesian basis functions
    33 alpha electrons       33 beta electrons
       nuclear repulsion energy       441.1131972587 Hartrees.
 NAtoms=   15 NActive=   15 NUniq=   15 SFac= 1.00D+00 NAtFMM=   60 NAOKFM=F Big=F
 Integral buffers will be    262144 words long.
 Raffenetti 1 integral format.
 Two-electron integral symmetry is turned on.
 One-electron integrals computed using PRISM.
 NBasis=   129 RedAO= T EigKep=  1.19D-05  NBF=   129
 NBsUse=   129 1.00D-06 EigRej= -1.00D+00 NBFU=   129
 Initial guess from the checkpoint file:  "C:\G09W\Scratch\gxx.chk"
 B after Tr=     0.000000    0.000000    0.000000
         Rot=    1.000000    0.000012    0.000041   -0.000875 Ang=   0.10 deg.
 ExpMin= 4.38D-02 ExpMax= 5.48D+03 ExpMxC= 8.25D+02 IAcc=2 IRadAn=         4 AccDes= 0.00D+00
 Harris functional with IExCor=  205 and IRadAn=       4 diagonalized for initial guess.
 HarFok:  IExCor=  205 AccDes= 0.00D+00 IRadAn=         4 IDoV= 1 UseB2=F ITyADJ=14
 ICtDFT=  3500011 ScaDFX=  1.000000  1.000000  1.000000  1.000000
 FoFCou: FMM=F IPFlag=           0 FMFlag=      100000 FMFlg1=           0
         NFxFlg=           0 DoJE=T BraDBF=F KetDBF=T FulRan=T
         wScrn=  0.000000 ICntrl=     500 IOpCl=  0 I1Cent=   200000004 NGrid=           0
         NMat0=    1 NMatS0=      1 NMatT0=    0 NMatD0=    1 NMtDS0=    0 NMtDT0=    0
 Petite list used in FoFCou.
 Requested convergence on RMS density matrix=1.00D-08 within 128 cycles.
 Requested convergence on MAX density matrix=1.00D-06.
 Requested convergence on             energy=1.00D-06.
 No special actions if energy rises.
 Initial convergence to 1.0D-05 achieved.  Increase integral accuracy.
 SCF Done:  E(RHF) =  -451.316385472     A.U. after   14 cycles
            NFock= 14  Conv=0.89D-08     -V/T= 1.9997
 Calling FoFJK, ICntrl=      2127 FMM=F ISym2X=0 I1Cent= 0 IOpClX= 0 NMat=1 NMatS=1 NMatT=0.
 ***** Axes restored to original set *****
 -------------------------------------------------------------------
 Center     Atomic                   Forces (Hartrees/Bohr)
 Number     Number              X              Y              Z
 -------------------------------------------------------------------
      1        8           0.001632408   -0.000031175    0.000922986
      2        8          -0.000161879   -0.000679787   -0.000567776
      3        7           0.003238806   -0.007335983    0.002992043
      4        7           0.001135146    0.000999861   -0.000292947
      5        6          -0.000125330    0.001022182    0.000369572
      6        6          -0.001000450    0.000393065    0.000574583
      7        6           0.001976636   -0.000588997    0.000785885
      8        6          -0.001091668    0.000294329   -0.000878913
      9        6          -0.001757902   -0.005867350   -0.002025769
     10        1          -0.004013406    0.007417167   -0.003268419
     11        1          -0.000891675   -0.002120412   -0.000347899
     12        1          -0.000228338    0.000755020    0.000110103
     13        1           0.001971877    0.004532915    0.001446700
     14        1          -0.000218584    0.000756984   -0.000352619
     15        1          -0.000465641    0.000452181    0.000532469
 -------------------------------------------------------------------
 Cartesian Forces:  Max     0.007417167 RMS     0.002342912

 GradGradGradGradGradGradGradGradGradGradGradGradGradGradGradGradGradGrad
 Berny optimization.
 Search for a local minimum.
 Step number   4 out of a maximum of   55
 All quantities printed in internal units (Hartrees-Bohrs-Radians)
 Update second derivatives using D2CorN and points    1    2    3    4
 DE= -3.26D-03 DEPred=-3.47D-03 R= 9.39D-01
 TightC=F SS=  1.41D+00  RLast= 1.96D-01 DXNew= 1.4270D+00 5.8902D-01
 Trust test= 9.39D-01 RLast= 1.96D-01 DXMaxT set to 8.49D-01
 ITU=  1  1  1  0
     Eigenvalues ---    0.00494   0.00557   0.01569   0.01650   0.02839
     Eigenvalues ---    0.03360   0.03860   0.07214   0.07533   0.08214
     Eigenvalues ---    0.08524   0.09488   0.10649   0.11370   0.12890
     Eigenvalues ---    0.13842   0.15222   0.16170   0.16920   0.22220
     Eigenvalues ---    0.27144   0.29595   0.33402   0.39684   0.46762
     Eigenvalues ---    0.47078   0.65936   0.84583   1.01215   1.05333
     Eigenvalues ---    1.09986   1.39719   1.50425   1.62192   1.64147
     Eigenvalues ---    1.91593   2.16572   2.22924   2.37380
 RFO step:  Lambda=-2.09598324D-04 EMin= 4.94003586D-03
 Quartic linear search produced a step of -0.03956.
 TrRot=  0.000000  0.000000  0.000000  0.000000  0.000000  0.000000
 MatCor failed.
 Variable       Old X    -DE/DX   Delta X   Delta X   Delta X     New X
                                 (Linear)    (Quad)   (Total)
    X1       11.06396   0.00163   0.00073   0.00157   0.00230  11.06626
    Y1       -0.11720  -0.00003  -0.00010  -0.00250  -0.00261  -0.11980
    Z1        3.00409   0.00092  -0.00022   0.00438   0.00416   3.00825
    X2       17.10336  -0.00016   0.00021   0.00197   0.00217  17.10553
    Y2       -4.54621  -0.00068  -0.00039  -0.00265  -0.00303  -4.54924
    Z2        7.22868  -0.00057   0.00023  -0.01414  -0.01392   7.21476
    X3       14.20986   0.00324  -0.00066  -0.00416  -0.00483  14.20503
    Y3        2.04113  -0.00734   0.00216  -0.00099   0.00117   2.04230
    Z3        5.01037   0.00299  -0.00039   0.00361   0.00322   5.01359
    X4       14.12049   0.00114  -0.00092   0.00424   0.00332  14.12381
    Y4       -2.28989   0.00100  -0.00261   0.00165  -0.00096  -2.29085
    Z4        5.14386  -0.00029  -0.00038  -0.00233  -0.00271   5.14115
    X5       12.99173  -0.00013   0.00033  -0.00076  -0.00044  12.99129
    Y5       -0.12150   0.00102  -0.00029   0.00049   0.00021  -0.12130
    Z5        4.29022   0.00037   0.00040   0.00357   0.00397   4.29418
    X6       16.29500  -0.00100  -0.00085   0.00074  -0.00011  16.29489
    Y6       -2.47375   0.00039  -0.00076   0.00140   0.00064  -2.47311
    Z6        6.59729   0.00057   0.00031  -0.00032   0.00000   6.59729
    X7       17.47071   0.00198  -0.00034   0.00368   0.00335  17.47406
    Y7       -0.07074  -0.00059   0.00010   0.00148   0.00158  -0.06916
    Z7        7.29098   0.00079   0.00023  -0.00148  -0.00125   7.28973
    X8       16.37988  -0.00109  -0.00024  -0.00235  -0.00259  16.37729
    Y8        2.04999   0.00029   0.00118   0.00103   0.00221   2.05220
    Z8        6.46998  -0.00088   0.00017  -0.00068  -0.00051   6.46947
    X9       19.83607  -0.00176   0.00073  -0.00056   0.00016  19.83624
    Y9       -0.13626  -0.00587   0.00057  -0.00252  -0.00195  -0.13821
    Z9        8.85949  -0.00203  -0.00012   0.00120   0.00108   8.86057
   X10       13.44505  -0.00401   0.00066  -0.00639  -0.00573  13.43932
   Y10        3.64209   0.00742   0.00340   0.00697   0.01037   3.65246
   Z10        4.44982  -0.00327   0.00015  -0.00227  -0.00212   4.44771
   X11       13.28873  -0.00089   0.00027   0.00588   0.00615  13.29488
   Y11       -3.90177  -0.00212  -0.00426  -0.00272  -0.00698  -3.90875
   Z11        4.65107  -0.00035   0.00021  -0.00220  -0.00199   4.64908
   X12       17.12846  -0.00023   0.00060  -0.01016  -0.00957  17.11889
   Y12        3.88018   0.00076   0.00142   0.00511   0.00653   3.88672
   Z12        6.89099   0.00011   0.00053   0.00061   0.00114   6.89213
   X13       20.37651   0.00197   0.00044   0.03134   0.03179  20.40830
   Y13        1.74273   0.00453   0.00120   0.00562   0.00682   1.74955
   Z13        9.41601   0.00145   0.00050  -0.02827  -0.02777   9.38824
   X14       19.56203  -0.00022  -0.00162  -0.02199  -0.02360  19.53843
   Y14       -1.26821   0.00076  -0.00086   0.03828   0.03742  -1.23079
   Z14       10.54314  -0.00035   0.00009   0.02480   0.02489  10.56802
   X15       21.38345  -0.00047   0.00066  -0.01070  -0.01004  21.37341
   Y15       -0.98361   0.00045  -0.00076  -0.04506  -0.04583  -1.02944
   Z15        7.81508   0.00053  -0.00171   0.02594   0.02423   7.83931
         Item               Value     Threshold  Converged?
 Maximum Force            0.007417     0.000450     NO 
 RMS     Force            0.002343     0.000300     NO 
 Maximum Displacement     0.045827     0.001800     NO 
 RMS     Displacement     0.013253     0.001200     NO 
 Predicted change in Energy=-1.155741D-04
 GradGradGradGradGradGradGradGradGradGradGradGradGradGradGradGradGradGrad

                          Input orientation:                          
 ---------------------------------------------------------------------
 Center     Atomic      Atomic             Coordinates (Angstroms)
 Number     Number       Type             X           Y           Z
 ---------------------------------------------------------------------
      1          8           0        5.856012   -0.063397    1.591897
      2          8           0        9.051858   -2.407355    3.817886
      3          7           0        7.516978    1.080740    2.653079
      4          7           0        7.473999   -1.212266    2.720578
      5          6           0        6.874694   -0.064189    2.272384
      6          6           0        8.622882   -1.308712    3.491133
      7          6           0        9.246872   -0.036599    3.857560
      8          6           0        8.666491    1.085976    3.423493
      9          6           0       10.496884   -0.073135    4.688810
     10          1           0        7.111782    1.932799    2.353626
     11          1           0        7.035349   -2.068421    2.460185
     12          1           0        9.058925    2.056762    3.647157
     13          1           0       10.799608    0.925824    4.968044
     14          1           0       10.339290   -0.651307    5.592357
     15          1           0       11.310319   -0.544756    4.148384
 ---------------------------------------------------------------------
                    Distance matrix (angstroms):
                    1          2          3          4          5
     1  O    0.000000
     2  O    4.545613   0.000000
     3  N    2.279027   3.984901   0.000000
     4  N    2.282915   2.263176   2.294401   0.000000
     5  C    1.225062   3.552330   1.366864   1.370447   0.000000
     6  C    3.579592   1.223849   2.763121   1.386719   2.467863
     7  C    4.078221   2.379095   2.385740   2.412053   2.853204
     8  C    3.546068   3.536582   1.383816   2.682916   2.420427
     9  C    5.579306   2.880137   3.788861   3.782775   4.354245
    10  H    2.478304   4.974423   0.989879   3.187049   2.012652
    11  H    2.482918   2.454493   3.191612   0.996605   2.019413
    12  H    4.356355   4.467386   2.078079   3.749278   3.340554
    13  H    6.067625   3.935426   4.019791   4.547769   4.863297
    14  H    6.037310   2.808903   4.427730   4.095325   4.834290
    15  H    6.042913   2.946040   4.389489   4.147475   4.839947
                    6          7          8          9         10
     6  C    0.000000
     7  C    1.463525   0.000000
     8  C    2.396039   1.336199   0.000000
     9  C    2.544202   1.501613   2.508964   0.000000
    10  H    3.752963   3.270925   2.068537   4.575562   0.000000
    11  H    2.039675   3.312370   3.679512   4.574949   4.003368
    12  H    3.397189   2.112286   1.070727   2.772946   2.340930
    13  H    3.451456   2.137854   2.638460   1.080524   4.631332
    14  H    2.791663   2.140272   3.243513   1.084213   5.252027
    15  H    2.870179   2.144904   3.189761   1.084511   5.194915
                   11         12         13         14         15
    11  H    0.000000
    12  H    4.745619   0.000000
    13  H    5.424436   2.460434   0.000000
    14  H    4.768096   3.571663   1.757556   0.000000
    15  H    4.842204   3.476766   1.759339   1.743362   0.000000
 Stoichiometry    C5H6N2O2
 Framework group  C1[X(C5H6N2O2)]
 Deg. of freedom    39
 Full point group                 C1      NOp   1
 Largest Abelian subgroup         C1      NOp   1
 Largest concise Abelian subgroup C1      NOp   1
                         Standard orientation:                         
 ---------------------------------------------------------------------
 Center     Atomic      Atomic             Coordinates (Angstroms)
 Number     Number       Type             X           Y           Z
 ---------------------------------------------------------------------
      1          8           0       -2.866011    0.221348    0.000774
      2          8           0        1.365366    1.882085    0.001265
      3          7           0       -1.114685   -1.237015    0.002059
      4          7           0       -0.729138    1.024758   -0.001658
      5          6           0       -1.658080    0.017193    0.000266
      6          6           0        0.650867    0.888461   -0.001625
      7          6           0        1.150176   -0.487255   -0.002348
      8          6           0        0.248755   -1.473595   -0.000822
      9          6           0        2.636280   -0.702479    0.001343
     10          1           0       -1.753458   -1.993197   -0.002134
     11          1           0       -1.088059    1.954486   -0.000086
     12          1           0        0.530481   -2.506594   -0.001313
     13          1           0        2.870675   -1.752767   -0.096052
     14          1           0        3.102884   -0.167248   -0.818002
     15          1           0        3.081420   -0.330305    0.917585
 ---------------------------------------------------------------------
 Rotational constants (GHZ):      3.2307476      1.4128912      0.9888949
 Standard basis: 6-31+G (6D, 7F)
 There are   129 symmetry adapted cartesian basis functions of A   symmetry.
 There are   129 symmetry adapted basis functions of A   symmetry.
   129 basis functions,   258 primitive gaussians,   129 cartesian basis functions
    33 alpha electrons       33 beta electrons
       nuclear repulsion energy       441.0583258724 Hartrees.
 NAtoms=   15 NActive=   15 NUniq=   15 SFac= 1.00D+00 NAtFMM=   60 NAOKFM=F Big=F
 Integral buffers will be    262144 words long.
 Raffenetti 1 integral format.
 Two-electron integral symmetry is turned on.
 One-electron integrals computed using PRISM.
 NBasis=   129 RedAO= T EigKep=  1.20D-05  NBF=   129
 NBsUse=   129 1.00D-06 EigRej= -1.00D+00 NBFU=   129
 Initial guess from the checkpoint file:  "C:\G09W\Scratch\gxx.chk"
 B after Tr=     0.000000    0.000000    0.000000
         Rot=    1.000000    0.000463   -0.000059    0.000021 Ang=   0.05 deg.
 ExpMin= 4.38D-02 ExpMax= 5.48D+03 ExpMxC= 8.25D+02 IAcc=2 IRadAn=         4 AccDes= 0.00D+00
 Harris functional with IExCor=  205 and IRadAn=       4 diagonalized for initial guess.
 HarFok:  IExCor=  205 AccDes= 0.00D+00 IRadAn=         4 IDoV= 1 UseB2=F ITyADJ=14
 ICtDFT=  3500011 ScaDFX=  1.000000  1.000000  1.000000  1.000000
 FoFCou: FMM=F IPFlag=           0 FMFlag=      100000 FMFlg1=           0
         NFxFlg=           0 DoJE=T BraDBF=F KetDBF=T FulRan=T
         wScrn=  0.000000 ICntrl=     500 IOpCl=  0 I1Cent=   200000004 NGrid=           0
         NMat0=    1 NMatS0=      1 NMatT0=    0 NMatD0=    1 NMtDS0=    0 NMtDT0=    0
 Petite list used in FoFCou.
 Requested convergence on RMS density matrix=1.00D-08 within 128 cycles.
 Requested convergence on MAX density matrix=1.00D-06.
 Requested convergence on             energy=1.00D-06.
 No special actions if energy rises.
 Initial convergence to 1.0D-05 achieved.  Increase integral accuracy.
 SCF Done:  E(RHF) =  -451.316532908     A.U. after   13 cycles
            NFock= 13  Conv=0.42D-08     -V/T= 1.9997
 Calling FoFJK, ICntrl=      2127 FMM=F ISym2X=0 I1Cent= 0 IOpClX= 0 NMat=1 NMatS=1 NMatT=0.
 ***** Axes restored to original set *****
 -------------------------------------------------------------------
 Center     Atomic                   Forces (Hartrees/Bohr)
 Number     Number              X              Y              Z
 -------------------------------------------------------------------
      1        8          -0.000239276    0.000090760   -0.000131804
      2        8           0.000167667   -0.000260188    0.000354489
      3        7           0.002069991   -0.002678093    0.001985237
      4        7           0.000147244    0.000325745    0.000022990
      5        6           0.000281929    0.000113416    0.000069517
      6        6           0.000121198    0.000081074   -0.000620142
      7        6           0.000323130    0.000261411    0.000038948
      8        6          -0.000044476    0.000011577    0.000135467
      9        6          -0.001059445   -0.002935113    0.000117666
     10        1          -0.002036244    0.002428001   -0.001639528
     11        1          -0.000270133   -0.000138336   -0.000103661
     12        1          -0.000034648   -0.000052724   -0.000009300
     13        1           0.000901074    0.001469308    0.000215256
     14        1           0.000162272    0.000829821   -0.000769908
     15        1          -0.000490282    0.000453343    0.000334773
 -------------------------------------------------------------------
[...]
 DE= -4.75D-07 DEPred=-6.69D-07 R= 7.10D-01
 Trust test= 7.10D-01 RLast= 2.25D-02 DXMaxT set to 1.06D-01
 ITU=  0  1 -1 -1  1 -1  1  1  1  1  1  1  0
     Eigenvalues ---    0.00129   0.00539   0.01605   0.01673   0.02855
     Eigenvalues ---    0.03575   0.03944   0.07451   0.07572   0.08257
     Eigenvalues ---    0.08574   0.09652   0.11109   0.11482   0.13157
     Eigenvalues ---    0.14921   0.15340   0.16458   0.17063   0.22466
     Eigenvalues ---    0.26634   0.30158   0.33680   0.39657   0.46480
     Eigenvalues ---    0.47237   0.65662   0.83783   1.00881   1.05350
     Eigenvalues ---    1.09122   1.37780   1.48240   1.61962   1.63897
     Eigenvalues ---    1.90914   2.16619   2.22201   2.33381
 RFO step:  Lambda=-3.49800847D-07 EMin= 1.29086733D-03
 Quartic linear search produced a step of -0.16317.
 TrRot= -0.000365 -0.000335  0.001006  0.000011  0.000066  0.000011
 MatCor failed.
 Variable       Old X    -DE/DX   Delta X   Delta X   Delta X     New X
                                 (Linear)    (Quad)   (Total)
    X1       11.06919  -0.00004   0.00029  -0.00095  -0.00082  11.06837
    Y1       -0.11800   0.00000   0.00003   0.00001  -0.00005  -0.11804
    Z1        3.00805   0.00005  -0.00032   0.00131   0.00127   3.00932
    X2       17.13401   0.00006  -0.00048   0.00091   0.00064  17.13465
    Y2       -4.54884  -0.00002   0.00004   0.00011   0.00019  -4.54865
    Z2        7.17913  -0.00001   0.00091  -0.00070   0.00009   7.17922
    X3       14.18997  -0.00016   0.00013   0.00036   0.00041  14.19038
    Y3        2.04294   0.00020  -0.00001   0.00004   0.00001   2.04296
    Z3        5.04003  -0.00011  -0.00011  -0.00065  -0.00069   5.03935
    X4       14.13948  -0.00001  -0.00009   0.00013   0.00006  14.13954
    Y4       -2.29228   0.00000   0.00001   0.00004   0.00003  -2.29225
    Z4        5.11946  -0.00006   0.00021  -0.00007   0.00022   5.11968
    X5       12.99336   0.00002   0.00019   0.00007   0.00018  12.99354
    Y5       -0.12149  -0.00003  -0.00001   0.00000  -0.00005  -0.12154
    Z5        4.29633  -0.00010  -0.00018  -0.00022  -0.00024   4.29609
    X6       16.31112  -0.00006  -0.00034   0.00012  -0.00010  16.31102
    Y6       -2.47339   0.00001   0.00001   0.00005   0.00009  -2.47330
    Z6        6.57426   0.00012   0.00059   0.00002   0.00055   6.57481
    X7       17.47518   0.00004  -0.00008   0.00019   0.00023  17.47541
    Y7       -0.06766   0.00000   0.00001   0.00004   0.00011  -0.06755
    Z7        7.28849  -0.00005   0.00012  -0.00038  -0.00041   7.28808
    X8       16.36459   0.00002   0.00010   0.00031   0.00043  16.36501
    Y8        2.05536   0.00000   0.00002   0.00003   0.00008   2.05543
    Z8        6.49116   0.00003  -0.00009  -0.00050  -0.00066   6.49050
    X9       19.83338   0.00007   0.00004  -0.00050  -0.00024  19.83314
    Y9       -0.14225   0.00002  -0.00005  -0.00013  -0.00007  -0.14232
    Z9        8.86202   0.00003  -0.00017   0.00042  -0.00005   8.86197
   X10       13.40522   0.00015   0.00008   0.00067   0.00060  13.40581
   Y10        3.65171  -0.00016  -0.00004   0.00007  -0.00001   3.65170
   Z10        4.47349   0.00010  -0.00033  -0.00032  -0.00052   4.47296
   X11       13.31770   0.00003  -0.00021   0.00004  -0.00014  13.31755
   Y11       -3.90961   0.00000   0.00003  -0.00004  -0.00004  -3.90965
   Z11        4.61169   0.00004   0.00030   0.00041   0.00083   4.61252
   X12       17.09523  -0.00001   0.00021   0.00021   0.00042  17.09565
   Y12        3.89020   0.00001   0.00001   0.00007   0.00012   3.89032
   Z12        6.92987   0.00001  -0.00021  -0.00038  -0.00071   6.92916
   X13       20.50573  -0.00004  -0.00099  -0.00050  -0.00128  20.50445
   Y13        1.75121  -0.00008   0.00000  -0.00028  -0.00017   1.75104
   Z13        9.25254   0.00000   0.00137   0.00059   0.00162   9.25416
   X14       19.49472  -0.00004   0.00062  -0.00174  -0.00076  19.49396
   Y14       -1.09149   0.00002  -0.00167   0.00008  -0.00150  -1.09299
   Z14       10.64348  -0.00005  -0.00094   0.00026  -0.00096  10.64253
   X15       21.31873  -0.00003   0.00054  -0.00032   0.00039  21.31913
   Y15       -1.17383   0.00002   0.00161  -0.00048   0.00127  -1.17257
   Z15        7.90347   0.00001  -0.00116   0.00121  -0.00035   7.90313
         Item               Value     Threshold  Converged?
 Maximum Force            0.000196     0.000450     YES
 RMS     Force            0.000067     0.000300     YES
 Maximum Displacement     0.001621     0.001800     YES
 RMS     Displacement     0.000609     0.001200     YES
 Predicted change in Energy=-2.195785D-07
 Optimization completed.
    -- Stationary point found.
 GradGradGradGradGradGradGradGradGradGradGradGradGradGradGradGradGradGrad

                          Input orientation:                          
 ---------------------------------------------------------------------
 Center     Atomic      Atomic             Coordinates (Angstroms)
 Number     Number       Type             X           Y           Z
 ---------------------------------------------------------------------
      1          8           0        5.857564   -0.062441    1.591790
      2          8           0        9.066929   -2.407142    3.799034
      3          7           0        7.509009    1.081079    2.667070
      4          7           0        7.482289   -1.213022    2.709101
      5          6           0        6.875790   -0.064289    2.273519
      6          6           0        8.631475   -1.308860    3.478950
      7          6           0        9.247469   -0.035802    3.856903
      8          6           0        8.659768    1.087647    3.434971
      9          6           0       10.495374   -0.075275    4.689578
     10          1           0        7.093735    1.932401    2.367266
     11          1           0        7.047422   -2.068878    2.440402
     12          1           0        9.046408    2.058603    3.667129
     13          1           0       10.851165    0.926701    4.896231
     14          1           0       10.316162   -0.577594    5.632289
     15          1           0       11.281387   -0.621166    4.182339
 ---------------------------------------------------------------------
                    Distance matrix (angstroms):
                    1          2          3          4          5
     1  O    0.000000
     2  O    4.546381   0.000000
     3  N    2.278407   3.984487   0.000000
     4  N    2.282970   2.263838   2.294641   0.000000
     5  C    1.225374   3.552076   1.366645   1.370094   0.000000
     6  C    3.579039   1.224049   2.762406   1.386536   2.466668
     7  C    4.077119   2.378907   2.384400   2.412293   2.851802
     8  C    3.545754   3.537212   1.383460   2.684478   2.420435
     9  C    5.577252   2.875956   3.787621   3.780931   4.351879
    10  H    2.471614   4.977458   0.993521   3.187712   2.010736
    11  H    2.482276   2.457380   3.191656   0.996894   2.018832
    12  H    4.355983   4.467739   2.078285   3.750709   3.340719
    13  H    6.069084   3.937238   4.020323   4.550964   4.864595
    14  H    6.039049   2.875526   4.407247   4.120635   4.835388
    15  H    6.036636   2.870619   4.407324   4.117507   4.833527
                    6          7          8          9         10
     6  C    0.000000
     7  C    1.463890   0.000000
     8  C    2.397078   1.336247   0.000000
     9  C    2.541942   1.500724   2.509159   0.000000
    10  H    3.755830   3.275883   2.075105   4.582035   0.000000
    11  H    2.040939   3.313620   3.681369   4.574016   4.002215
    12  H    3.398145   2.112574   1.070581   2.774589   2.349149
    13  H    3.454481   2.139733   2.638826   1.083166   4.639545
    14  H    2.830157   2.141878   3.216345   1.083118   5.229195
    15  H    2.826608   2.141351   3.217372   1.083099   5.229877
                   11         12         13         14         15
    11  H    0.000000
    12  H    4.747305   0.000000
    13  H    5.428909   2.459480   0.000000
    14  H    4.805906   3.524722   1.758099   0.000000
    15  H    4.801736   3.527284   1.758017   1.742387   0.000000
 Stoichiometry    C5H6N2O2
 Framework group  C1[X(C5H6N2O2)]
 Deg. of freedom    39
 Full point group                 C1      NOp   1
 Largest Abelian subgroup         C1      NOp   1
 Largest concise Abelian subgroup C1      NOp   1
                         Standard orientation:                         
 ---------------------------------------------------------------------
 Center     Atomic      Atomic             Coordinates (Angstroms)
 Number     Number       Type             X           Y           Z
 ---------------------------------------------------------------------
      1          8           0       -2.865428    0.222382    0.001285
      2          8           0        1.367907    1.880228   -0.000497
      3          7           0       -1.114991   -1.236077   -0.000888
      4          7           0       -0.728490    1.025779   -0.000338
      5          6           0       -1.657147    0.018428   -0.000132
      6          6           0        0.651180    0.887959   -0.000245
      7          6           0        1.149220   -0.488606   -0.000397
      8          6           0        0.247696   -1.474917   -0.000550
      9          6           0        2.634740   -0.701681    0.001035
     10          1           0       -1.762584   -1.989542   -0.000874
     11          1           0       -1.088320    1.955467    0.000392
     12          1           0        0.528645   -2.507976   -0.000201
     13          1           0        2.871212   -1.758713    0.004781
     14          1           0        3.091526   -0.250409   -0.871229
     15          1           0        3.089917   -0.244712    0.871148
 ---------------------------------------------------------------------
 Rotational constants (GHZ):      3.2321603      1.4132614      0.9891986

 **********************************************************************

            Population analysis using the SCF density.

 **********************************************************************

 Orbital symmetries:
       Occupied  (A) (A) (A) (A) (A) (A) (A) (A) (A) (A) (A) (A)
                 (A) (A) (A) (A) (A) (A) (A) (A) (A) (A) (A) (A)
                 (A) (A) (A) (A) (A) (A) (A) (A) (A)
       Virtual   (A) (A) (A) (A) (A) (A) (A) (A) (A) (A) (A) (A)
                 (A) (A) (A) (A) (A) (A) (A) (A) (A) (A) (A) (A)
                 (A) (A) (A) (A) (A) (A) (A) (A) (A) (A) (A) (A)
                 (A) (A) (A) (A) (A) (A) (A) (A) (A) (A) (A) (A)
                 (A) (A) (A) (A) (A) (A) (A) (A) (A) (A) (A) (A)
                 (A) (A) (A) (A) (A) (A) (A) (A) (A) (A) (A) (A)
                 (A) (A) (A) (A) (A) (A) (A) (A) (A) (A) (A) (A)
                 (A) (A) (A) (A) (A) (A) (A) (A) (A) (A) (A) (A)
 The electronic state is 1-A.
 Alpha  occ. eigenvalues --  -20.56603 -20.56258 -15.65412 -15.64357 -11.44517
 Alpha  occ. eigenvalues --  -11.40635 -11.34573 -11.28217 -11.24515  -1.46141
 Alpha  occ. eigenvalues --   -1.42720  -1.32864  -1.26553  -1.12930  -0.98693
 Alpha  occ. eigenvalues --   -0.93655  -0.91680  -0.79079  -0.78948  -0.72767
 Alpha  occ. eigenvalues --   -0.68487  -0.68177  -0.63949  -0.62337  -0.60172
 Alpha  occ. eigenvalues --   -0.57776  -0.57147  -0.56016  -0.51718  -0.48089
 Alpha  occ. eigenvalues --   -0.45225  -0.43446  -0.36116
 Alpha virt. eigenvalues --    0.04495   0.06617   0.07258   0.07643   0.09263
 Alpha virt. eigenvalues --    0.09473   0.10759   0.11287   0.12607   0.13581
 Alpha virt. eigenvalues --    0.13650   0.14503   0.15066   0.16921   0.17403
 Alpha virt. eigenvalues --    0.18374   0.19664   0.21020   0.21294   0.22990
 Alpha virt. eigenvalues --    0.24437   0.25111   0.26158   0.26894   0.28105
 Alpha virt. eigenvalues --    0.28253   0.30208   0.31096   0.32891   0.33885
 Alpha virt. eigenvalues --    0.35177   0.36267   0.37324   0.37921   0.38612
 Alpha virt. eigenvalues --    0.39027   0.40296   0.41028   0.41670   0.43037
 Alpha virt. eigenvalues --    0.43122   0.44629   0.45233   0.46821   0.48131
 Alpha virt. eigenvalues --    0.50164   0.51304   0.55799   0.56373   0.59302
 Alpha virt. eigenvalues --    0.60811   0.72787   0.74005   0.77461   0.86725
 Alpha virt. eigenvalues --    0.91352   0.91771   0.92223   0.93820   0.96475
 Alpha virt. eigenvalues --    0.99958   1.02192   1.02339   1.05486   1.10468
 Alpha virt. eigenvalues --    1.15657   1.15767   1.17502   1.18678   1.20503
 Alpha virt. eigenvalues --    1.25566   1.29468   1.29609   1.34122   1.35877
 Alpha virt. eigenvalues --    1.38847   1.43708   1.44620   1.46324   1.47158
 Alpha virt. eigenvalues --    1.51946   1.55405   1.58623   1.60476   1.65012
 Alpha virt. eigenvalues --    1.67218   1.69210   1.70381   1.72396   1.74672
 Alpha virt. eigenvalues --    1.82867   1.84562   1.97594   2.05374   2.49163
 Alpha virt. eigenvalues --    2.59305
          Condensed to atoms (all electrons):
               1          2          3          4          5          6
     1  O    8.547567   0.002704  -0.176243  -0.139169   0.329463   0.046478
     2  O    0.002704   8.577244   0.000234  -0.201773   0.068736   0.254685
     3  N   -0.176243   0.000234   8.496765  -0.564303   0.020637   0.216286
     4  N   -0.139169  -0.201773  -0.564303   9.298279  -0.246008  -0.350519
     5  C    0.329463   0.068736   0.020637  -0.246008   5.361030  -0.442357
     6  C    0.046478   0.254685   0.216286  -0.350519  -0.442357   9.714618
     7  C   -0.058760  -0.051656   0.233108  -0.937749   0.508795  -1.691543
     8  C    0.088688  -0.096704  -0.661941   0.782707  -0.575031  -1.562771
     9  C   -0.002251   0.089325   0.053604  -0.002797  -0.000844  -0.598737
    10  H    0.003785  -0.000043   0.275559   0.011405   0.005013  -0.014579
    11  H    0.002076   0.001724   0.009403   0.279937  -0.002361  -0.023812
    12  H   -0.000571  -0.000511  -0.049263   0.000323  -0.005756   0.010304
    13  H   -0.000009   0.002231  -0.001063   0.000293  -0.000455  -0.070434
    14  H    0.000002  -0.004698   0.001004  -0.000370   0.000272   0.050370
    15  H    0.000002  -0.004792   0.001027  -0.000347   0.000211   0.051918
               7          8          9         10         11         12
     1  O   -0.058760   0.088688  -0.002251   0.003785   0.002076  -0.000571
     2  O   -0.051656  -0.096704   0.089325  -0.000043   0.001724  -0.000511
     3  N    0.233108  -0.661941   0.053604   0.275559   0.009403  -0.049263
     4  N   -0.937749   0.782707  -0.002797   0.011405   0.279937   0.000323
     5  C    0.508795  -0.575031  -0.000844   0.005013  -0.002361  -0.005756
     6  C   -1.691543  -1.562771  -0.598737  -0.014579  -0.023812   0.010304
     7  C   11.447086  -3.568691  -0.690133   0.017827   0.037687   0.046883
     8  C   -3.568691  11.953538  -0.360006  -0.018285  -0.031515   0.319414
     9  C   -0.690133  -0.360006   7.159921   0.003684   0.006272   0.016843
    10  H    0.017827  -0.018285   0.003684   0.213837  -0.000012   0.000159
    11  H    0.037687  -0.031515   0.006272  -0.000012   0.200901   0.000001
    12  H    0.046883   0.319414   0.016843   0.000159   0.000001   0.396389
    13  H   -0.277429   0.138879   0.553914   0.000000   0.000001  -0.000395
    14  H    0.002179  -0.054870   0.351988   0.000001   0.000002   0.000045
    15  H    0.000585  -0.055706   0.352985   0.000001   0.000002   0.000045
              13         14         15
     1  O   -0.000009   0.000002   0.000002
     2  O    0.002231  -0.004698  -0.004792
     3  N   -0.001063   0.001004   0.001027
     4  N    0.000293  -0.000370  -0.000347
     5  C   -0.000455   0.000272   0.000211
     6  C   -0.070434   0.050370   0.051918
     7  C   -0.277429   0.002179   0.000585
     8  C    0.138879  -0.054870  -0.055706
     9  C    0.553914   0.351988   0.352985
    10  H    0.000000   0.000001   0.000001
    11  H    0.000001   0.000002   0.000002
    12  H   -0.000395   0.000045   0.000045
    13  H    0.526946  -0.028778  -0.028816
    14  H   -0.028778   0.485135  -0.029032
    15  H   -0.028816  -0.029032   0.485110
 Mulliken charges:
               1
     1  O   -0.643762
     2  O   -0.636707
     3  N   -0.854814
     4  N   -0.929908
     5  C    0.978656
     6  C    0.410093
     7  C    0.981810
     8  C   -0.297708
     9  C   -0.933767
    10  H    0.501647
    11  H    0.519695
    12  H    0.266090
    13  H    0.185115
    14  H    0.226751
    15  H    0.226809
 Sum of Mulliken charges =   0.00000
 Mulliken charges with hydrogens summed into heavy atoms:
               1
     1  O   -0.643762
     2  O   -0.636707
     3  N   -0.353167
     4  N   -0.410213
     5  C    0.978656
     6  C    0.410093
     7  C    0.981810
     8  C   -0.031618
     9  C   -0.295092
 Electronic spatial extent (au):  <R**2>=           1132.7315
 Charge=              0.0000 electrons
 Dipole moment (field-independent basis, Debye):
    X=              1.5711    Y=             -5.1793    Z=              0.0000  Tot=              5.4123
 Quadrupole moment (field-independent basis, Debye-Ang):
   XX=            -67.6980   YY=            -49.1319   ZZ=            -53.8042
   XY=             -4.1224   XZ=              0.0146   YZ=              0.0037
 Traceless Quadrupole moment (field-independent basis, Debye-Ang):
   XX=            -10.8200   YY=              7.7462   ZZ=              3.0738
   XY=             -4.1224   XZ=              0.0146   YZ=              0.0037
 Octapole moment (field-independent basis, Debye-Ang**2):
  XXX=             49.6189  YYY=            -25.6557  ZZZ=              0.0019  XYY=            -26.6522
  XXY=            -19.1649  XXZ=             -0.0286  XZZ=             -1.6615  YZZ=              3.7307
  YYZ=              0.0126  XYZ=              0.0009
 Hexadecapole moment (field-independent basis, Debye-Ang**3):
 XXXX=          -1126.3878 YYYY=           -401.6804 ZZZZ=            -59.7192 XXXY=             17.0473
 XXXZ=              0.0942 YYYX=            -22.0546 YYYZ=              0.0111 ZZZX=             -0.0179
 ZZZY=              0.0018 XXYY=           -229.9436 XXZZ=           -168.4575 YYZZ=            -88.0124
 XXYZ=              0.0085 YYXZ=              0.0246 ZZXY=              4.0006
 N-N= 4.410818942795D+02 E-N=-1.940029004650D+03  KE= 4.514274190387D+02
 1|1|UNPC-DESKTOP-DODPOI9|FOpt|RHF|6-31+G|C5H6N2O2|USUARIO|02-Dec-2023|
 0||# opt=cartesian HF 6-31+||THYMINE||0,1|O,5.8575637448,-0.0624408395
 ,1.5917896895|O,9.0669294313,-2.4071416041,3.7990338318|N,7.5090091016
 ,1.0810788916,2.6670699076|N,7.4822885816,-1.2130216197,2.7091011787|C
 ,6.875789759,-0.0642894186,2.2735189215|C,8.6314748604,-1.3088604766,3
 .4789504775|C,9.2474685179,-0.0358015197,3.8569029059|C,8.6597678196,1
 .0876471999,3.4349713868|C,10.4953738315,-0.0752754304,4.6895781218|H,
 7.0937347172,1.9324008564,2.3672664852|H,7.0474216534,-2.0688777504,2.
 4404018909|H,9.0464075604,2.05860313,3.6671294853|H,10.8511649022,0.92
 67006659,4.8962309482|H,10.3161616778,-0.5775941689,5.6322888914|H,11.
 2813865348,-0.6211656799,4.1823388292||Version=IA32W-G09RevD.01|State=
 1-A|HF=-451.3166124|RMSD=5.292e-009|RMSF=6.702e-005|Dipole=0.8145361,1
 .9044731,0.493702|Quadrupole=-3.7727213,4.3539967,-0.5812754,4.3270885
 ,-4.1699291,2.8405394|PG=C01 [X(C5H6N2O2)]||@


 IF THERE IS ONE WAY BETTER THAN ANOTHER IT IS THE WAY OF NATURE.

                          -- ARISTOTLE
 Job cpu time:       0 days  0 hours  5 minutes 50.0 seconds.
 File lengths (MBytes):  RWF=     12 Int=      0 D2E=      0 Chk=      2 Scr=      1
 Normal termination of Gaussian 09 at Sat Dec 02 20:52:12 2023.
